# vtk DataFile Version 4.0
vtk output
ASCII
DATASET POLYDATA
POINTS 12 float
-0.624677 0.117819 -0.0183659 -0.624677 1.61782 -0.664969 -0.624677 0.117819 -0.664969 
-0.624677 1.61782 0.628237 -0.624677 0.117819 0.628237 0.00345912 0.117819 0.628237 
0.631595 1.61782 0.628237 0.631595 0.117819 0.628237 0.631595 0.117819 -0.0183659 
0.631595 1.61782 -0.664969 0.631595 0.117819 -0.664969 0.00345912 0.117819 -0.664969 

POLYGONS 18 72
3 0 1 2 
3 3 0 4 
3 1 0 3 
3 5 3 4 
3 6 5 7 
3 3 5 6 
3 8 6 7 
3 9 8 10 
3 6 8 9 
3 11 9 10 
3 1 11 2 
3 9 11 1 
3 11 0 2 
3 11 10 8 
3 5 0 11 
3 11 8 5 
3 5 8 7 
3 4 0 5 

CELL_DATA 18
FIELD FieldData 1
MATERIAL_ID 1 18 int
0 0 0 0 0 0 0 0 0 
0 0 0 0 0 0 0 0 0 

POINT_DATA 12
FIELD FieldData 1
VELOCITY 3 12 double
0 0 0 0 0 0 0 0 0 
0 0 0 0 0 0 0 0 0 
0 0 0 0 0 0 0 0 0 
0 0 0 0 0 0 0 0 0 

