# vtk DataFile Version 4.1
vtk output
ASCII
DATASET UNSTRUCTURED_GRID
POINTS 1274 float
0.273719 -1.29441 -0.0531455 0.273971 -1.30223 0.0958302 0.279957 -1.29497 0.316418 
0.157864 -1.3163 -0.210667 0.298434 -1.29132 0.178031 0.411692 -1.23462 -0.0671551 
0.381792 -1.29105 0.322061 0.470808 -1.23557 0.493392 0.512335 -1.24378 -0.00747999 
0.637218 -1.25315 -0.00544541 0.539059 -1.34677 0.187664 0.641873 -1.22242 0.434045 
0.852505 -1.27227 -0.15131 0.843557 -1.25443 -0.0828798 0.65754 -1.29574 0.158206 
0.755512 -1.2758 0.265804 0.696038 -1.26986 0.218951 0.79442 -1.20761 -0.0445285 
0.637054 -1.20656 -0.0553418 0.672412 -1.34643 0.0077571 0.715145 -1.19029 -0.0822013 
0.690791 -1.30809 0.278242 0.413556 -1.22946 0.311766 0.615434 -1.272 0.224651 
0.912927 -1.23655 -0.076905 0.33049 -1.236 0.170145 0.657624 -1.2076 0.36333 
0.814302 -1.19481 -0.112941 0.921467 -1.31387 -0.000499253 0.82351 -1.22912 0.0380418 
0.972039 -1.20848 -0.0153763 0.656903 -1.22817 0.0470601 0.557912 -1.21856 0.378213 
1.0824 -1.22236 -0.286856 1.03337 -1.2415 -0.141623 0.503931 -1.22107 0.280665 
0.790144 -1.27858 -0.0124277 0.634943 -1.27381 0.285611 0.405271 -1.25052 0.137876 
0.949097 -1.20192 0.0569257 0.85163 -1.22616 -0.208541 0.798308 -1.23309 0.1601 
0.838488 -1.21203 0.108914 0.748364 -1.22039 0.216577 0.903695 -1.24339 -0.00585262 
0.986126 -1.23674 -0.235955 0.891871 -1.25222 0.291428 0.887638 -1.21801 0.22989 
0.452811 -1.29902 -0.306473 0.167887 -1.33251 0.280793 0.145205 -1.35876 -0.065457 
0.0370368 -1.33433 0.173522 0.286616 -1.3424 0.471741 0.255952 -1.3382 0.384944 
0.239814 -1.31303 0.164396 0.379798 -1.35334 0.285187 0.151077 -1.34827 -0.274914 
0.359413 -1.41001 0.0556163 0.61204 -1.28942 -0.213152 0.21784 -1.35344 -0.222302 
0.399627 -1.34728 -0.151451 0.371788 -1.35506 0.404515 0.399733 -1.29301 0.394666 
0.278232 -1.34829 0.20888 0.213565 -1.33798 0.00530087 0.485345 -1.2659 -0.187029 
0.413551 -1.36083 -0.0237599 0.58355 -1.34513 0.299813 0.433372 -1.28271 -0.142571 
0.304307 -1.28409 0.242992 0.552739 -1.36031 -0.0196832 0.376947 -1.27367 0.194532 
0.331386 -1.29832 0.0618219 0.330767 -1.26205 0.445541 0.50867 -1.22742 -0.0830759 
0.623866 -1.4128 0.100067 0.534417 -1.25004 -0.238621 0.216672 -1.28041 -0.184481 
0.568926 -1.3561 0.0411868 0.541106 -1.3014 -0.0341336 0.328616 -1.26194 0.2974 
0.451776 -1.28825 0.450463 0.579897 -1.33502 0.469889 0.446573 -1.28071 0.264054 
0.511003 -1.29909 0.291289 0.452065 -1.36107 0.112176 0.615111 -1.30338 -0.0472933 
0.643497 -1.22708 -0.214092 0.972575 -1.28497 -0.284828 0.570296 -1.28602 0.172327 
0.475906 -1.28651 -0.250332 0.76471 -1.28925 0.343846 0.645688 -1.32725 0.220583 
0.577212 -1.23802 -0.0534232 0.999485 -1.26682 -0.0446486 0.741848 -1.25394 -0.0604335 
0.684756 -1.29055 0.0495583 0.876225 -1.34911 0.161683 0.603163 -1.25486 0.0801472 
0.780447 -1.23225 0.387986 0.791363 -1.24183 0.464676 0.545535 -1.26306 0.233053 
0.826122 -1.35945 0.207797 0.621922 -1.2248 -0.144233 0.687891 -1.23192 -0.0328676 
0.553047 -1.24035 0.123896 0.73243 -1.23686 0.0214245 0.808426 -1.30043 0.178077 
0.829066 -1.24997 0.340531 0.681215 -1.26707 0.329839 0.809292 -1.22656 0.532537 
0.910106 -1.24434 -0.373856 0.769717 -1.30951 0.0489574 0.437928 -1.25595 0.192547 
0.738967 -1.22081 0.510973 1.16348 -1.22103 0.0120247 0.628891 -1.26756 0.530951 
0.734244 -1.22574 0.317622 0.705398 -1.24474 0.414803 0.579182 -1.24313 0.0157375 
0.958439 -1.29223 0.219642 1.10565 -1.23872 -0.166934 0.839102 -1.30518 0.044195 
0.977072 -1.2258 -0.0923469 0.908487 -1.2898 0.0615964 0.615997 -1.23626 0.147704 
1.32017 -1.19502 0.526799 0.738738 -1.25587 0.161614 0.940962 -1.22501 0.193204 
0.952808 -1.20813 0.423011 1.21177 -1.26328 -0.182511 0.905236 -1.23221 0.0978264 
1.04536 -1.22569 -0.00794611 0.863874 -1.23334 0.171957 1.10095 -1.25809 -0.0318625 
0.963465 -1.26263 0.0317338 0.0867217 -1.41341 -0.246549 0.285908 -1.36074 -0.213013 
0.430042 -1.40919 -0.397638 0.0351686 -1.3596 0.315228 0.213253 -1.32108 0.482529 
0.0967166 -1.40799 0.156745 0.216611 -1.34416 -0.402017 0.500867 -1.31866 -0.348177 
0.0871017 -1.35984 -0.381462 0.493821 -1.34764 0.45986 0.251055 -1.27894 0.529061 
0.147049 -1.35435 0.379368 0.241132 -1.41179 0.297678 0.0967178 -1.35816 -0.0124683 
0.276986 -1.31991 -0.156658 0.0801118 -1.35883 -0.288924 0.472594 -1.35386 0.309889 
0.348685 -1.40768 -0.0292946 0.12964 -1.34352 0.230605 0.213348 -1.33453 0.0982124 
0.219702 -1.29562 0.29139 0.321267 -1.29143 -0.295113 0.270966 -1.34801 0.0403761 
0.422602 -1.31837 0.166277 0.0827361 -1.29259 0.215289 0.51556 -1.30028 0.419464 
0.893398 -1.30014 0.533049 0.546781 -1.35542 0.420437 0.240946 -1.29486 0.228639 
0.318264 -1.3552 0.156948 0.318848 -1.35428 0.0925878 0.367959 -1.28827 -0.23262 
0.520199 -1.33275 -0.241257 0.492853 -1.2928 0.203902 0.554873 -1.22463 0.51984 
0.644743 -1.28746 0.408273 0.777155 -1.34097 0.461593 0.423918 -1.34427 0.22912 
0.677019 -1.41468 0.136478 0.595152 -1.22169 -0.399396 0.601333 -1.35847 0.188489 
0.857926 -1.22582 -0.318564 0.39166 -1.29517 -0.29874 0.82853 -1.29954 0.283807 
0.759235 -1.28957 0.419796 0.334416 -1.28397 -0.171873 0.571369 -1.27624 0.28893 
0.670147 -1.27194 -0.166548 0.490027 -1.24945 0.145383 0.879237 -1.29197 0.214053 
0.970494 -1.38762 0.0885632 0.535749 -1.28035 0.0563974 0.994658 -1.25477 0.444108 
0.648796 -1.33022 0.341013 0.941742 -1.29601 -0.0634345 0.675747 -1.20718 -0.269713 
0.725981 -1.22876 -0.144974 0.791359 -1.30411 -0.0805557 0.820757 -1.34976 -0.0451055 
0.73974 -1.31769 0.178891 0.703296 -1.35463 0.138882 0.859843 -1.29913 -0.0262935 
1.00871 -1.24924 0.0868816 1.06204 -1.27474 0.0387582 0.912502 -1.25079 -0.140626 
0.786864 -1.28866 0.115069 1.10901 -1.28368 0.395566 1.00431 -1.24678 0.188801 
0.818589 -1.24318 0.228985 0.699229 -1.25867 0.111083 0.931886 -1.36116 0.21696 
0.857221 -1.28509 0.119014 1.19594 -1.36077 0.117059 0.94726 -1.354 0.143506 
1.12381 -1.25876 -0.0977489 1.02662 -1.26073 0.275262 0.763485 -1.22417 0.0951353 
0.993278 -1.3533 0.196786 0.297599 -1.4153 -0.358798 0.199558 -1.37221 -0.327207 
0.0322034 -1.4135 -0.034478 0.441464 -1.28068 0.531353 0.0339856 -1.41171 0.191256 
0.0879496 -1.3241 -0.106953 0.341233 -1.30597 -0.394429 0.0369045 -1.3622 0.0211472 
0.0433622 -1.34339 0.478698 0.346613 -1.40639 0.198476 0.151928 -1.41314 0.444431 
0.324051 -1.34688 0.532516 0.0881922 -1.39527 0.227197 0.326729 -1.35877 -0.265262 
0.21819 -1.35057 -0.129267 0.249005 -1.41429 -0.202337 0.125153 -1.33769 0.152889 
0.312022 -1.29143 0.502123 0.0915658 -1.33746 -0.219694 1.00578 -1.41418 0.472848 
0.234277 -1.40735 0.202629 0.218172 -1.3414 -0.0604844 0.4035 -1.3585 -0.282318 
0.151044 -1.32344 -0.0011038 0.582386 -1.41374 0.215174 0.469171 -1.4131 0.144568 
0.452859 -1.28904 0.341048 0.274192 -1.35685 0.322699 0.194612 -1.3625 0.157695 
0.311786 -1.34571 0.270319 0.802198 -1.4127 -0.226685 0.190363 -1.38794 0.264675 
0.356503 -1.3423 -0.0620539 0.161633 -1.30567 -0.120867 0.394459 -1.41526 -0.141608 
0.293124 -1.35417 -0.087386 0.465733 -1.33972 0.396167 0.47945 -1.25476 0.394923 
0.297995 -1.35986 -0.0221882 0.358817 -1.34947 0.0161939 0.800615 -1.29724 -0.212018 
0.379087 -1.36167 0.155168 0.336259 -1.34529 -0.179503 0.352839 -1.29991 0.132105 
0.377697 -1.2936 0.256137 0.34763 -1.33267 0.211536 0.526515 -1.23552 0.436414 
0.447836 -1.29508 0.109016 0.734672 -1.25879 -0.2103 1.05809 -1.36694 -0.147733 
0.310596 -1.30423 0.00392721 0.444173 -1.30492 -0.0197007 0.835437 -1.41477 -0.140411 
0.613498 -1.36216 -0.0112422 0.650157 -1.36309 0.275052 0.50187 -1.35061 0.244397 
0.518593 -1.26028 0.345261 1.14793 -1.36802 0.380373 0.628293 -1.3683 -0.07349 
1.12039 -1.28358 -0.219115 0.725327 -1.29622 -0.115687 0.854121 -1.32443 -0.10796 
0.687034 -1.36357 -0.0515182 0.746834 -1.34146 -0.00648054 0.897999 -1.35461 -0.0556592 
1.04966 -1.2356 0.467678 0.636027 -1.31494 0.092592 0.841324 -1.41501 0.254241 
0.652964 -1.25694 -0.0937272 0.895594 -1.35375 0.0895025 1.09836 -1.31876 -0.000674155 
1.01074 -1.31092 0.00851188 0.81317 -1.37045 0.0466006 0.753687 -1.33949 0.101725 
0.696085 -1.29753 -0.0341771 1.05066 -1.34987 0.155137 0.854864 -1.41217 0.0910088 
1.17497 -1.22958 0.406475 0.994436 -1.28975 -0.106491 1.09784 -1.40835 0.173157 
0.963437 -1.37551 -0.0367972 0.97162 -1.31641 0.085019 0.868394 -1.20689 0.465475 
0.0341698 -1.37747 -0.227494 0.0314947 -1.41421 -0.173131 0.0354918 -1.41021 0.467919 
0.072492 -1.41424 0.307468 0.0840479 -1.37159 0.528368 0.0999219 -1.41553 0.479429 
0.0769192 -1.41064 -0.339099 0.166942 -1.39488 -0.39495 0.384911 -1.36007 -0.403686 
0.033625 -1.41208 -0.28579 0.0515131 -1.41294 0.0665901 0.265026 -1.4091 0.470981 
0.0356087 -1.41055 0.363686 0.240034 -1.4087 0.370327 0.142978 -1.41182 0.52917 
0.301815 -1.35415 -0.33223 0.142856 -1.41429 -0.331474 0.14582 -1.41471 -0.269141 
0.64054 -1.41014 -0.320316 0.424305 -1.41293 -0.237097 0.116028 -1.41367 0.0606886 
0.0974657 -1.34397 0.422133 0.392197 -1.3318 0.529312 0.109642 -1.35191 0.315391 
0.501022 -1.4062 0.400868 0.175097 -1.37133 0.0536212 0.310225 -1.40789 -0.168343 
0.292562 -1.41419 0.0897205 0.209909 -1.40908 -0.0931065 0.355501 -1.34879 0.469447 
0.316823 -1.32236 0.415534 0.291645 -1.40986 0.249612 0.715672 -1.34973 0.518506 
0.207438 -1.35186 0.331838 0.411423 -1.35002 0.34964 0.453544 -1.34852 -0.224242 
0.383448 -1.35575 -0.219 0.065577 -1.35878 0.109118 0.455402 -1.40706 -0.173086 
0.243418 -1.35266 0.267291 0.263803 -1.35817 0.128545 0.420836 -1.35369 0.450453 
0.336667 -1.32084 -0.12224 0.457438 -1.41043 0.0497667 0.629582 -1.28007 -0.371707 
0.524085 -1.29211 -0.290517 0.569952 -1.41475 0.0648898 0.519642 -1.28589 0.489103 
0.648229 -1.41098 0.225322 0.55071 -1.35155 -0.29621 0.456658 -1.41397 0.2092 
0.680702 -1.36144 0.394682 1.07291 -1.29114 -0.270064 0.463167 -1.28399 -0.079712 
0.428153 -1.34147 -0.0862041 0.50194 -1.32645 0.0150166 0.438322 -1.34184 0.0378726 
0.529637 -1.33077 0.355537 0.570687 -1.28918 0.535691 0.942822 -1.25452 0.531368 
[...]
POINT_DATA 1274
FIELD FieldData 10
VELOCITY 3 1274 double
9.9734527396e-05 0.00010759282784 -0.00056909156657 6.8368986989e-05 -1.6620295261e-05 -8.34764251e-05 -0.00026674212602 4.5271105584e-05 0.0010176116145 
-1.0295142025e-05 1.541794993e-05 -0.0001048938814 -0.0001278465475 -0.00020369661037 -0.00017945453166 0.00015561529063 3.5302153453e-05 0.00015574643464 
-0.00031323551997 0.00085436905643 0.0017402783744 -0.0025252023292 0.00083111935382 -0.00095995108981 -0.00015152975907 0.00027926978724 -0.0013377619219 
-0.00036208820491 7.4665014831e-05 -0.00033016179389 -0.00041351066752 0.00010776946289 -0.00036969163199 -0.0017465126532 -0.00062418312254 0.0024535354232 
-0.00026265585743 -0.00070444389138 0.00028207770775 -0.00016983709413 -0.00036904945306 -4.9445880299e-05 0.00071076863264 -0.00088862061165 -0.00027671448872 
-0.00013306330657 -2.1825512748e-06 0.00031684208844 0.0001831833 -0.00025280984295 -0.00016903579237 -0.0006392348046 -0.00053250848884 -0.00045107827105 
-0.00031658033468 -0.00125361133 -0.00035475072728 -0.00019125009037 -9.5169477274e-06 -0.00013656080152 -0.000130898655 -0.00064778796923 -0.00034239499982 
-0.00017784928934 -4.4644078306e-05 -0.00013604335347 -0.13718697716 0.06631822906 -0.029036584032 0.0001102786031 -3.9145548467e-05 0.00068166547014 
-0.00023488570564 -0.00017239595995 0.0005323332605 0.023873785385 -0.026576249908 -0.088081929908 0.00071516036011 -0.0015306529081 0.0028367516552 
-7.3326534092e-05 -0.00048357890738 -0.00030713278524 -0.00063681323861 -0.00014138762862 0.00049440498313 -0.00078699704904 -0.00072487148867 -2.1895995126e-06 
-0.00130505858 -9.5050613241e-06 0.00058407932346 0.00018435152827 0.00016386896979 -0.00051511885754 3.7717384485e-05 -0.0014594675462 0.0023909550227 
0.010391084921 -0.018498582199 -0.069007816033 0.00027378825285 -0.00021175139101 0.00016047612753 -0.0019389727706 -0.0017102995977 -1.9462944216e-05 
-0.00062532397317 -0.00047519203736 -0.00043246215985 8.7012982174e-05 0.00041875206835 -0.00027747724579 -0.00019059623669 -0.00016269660764 0.00032806156329 
0.091441480502 -0.014820192539 0.087352395865 -0.00017209229202 -0.00045672459742 -0.00059803201121 -0.00033316355683 -0.000167825764 3.313410699e-05 
-0.00062016334748 -0.00016845915724 -0.00019320010857 0.00064993256174 -0.0010498280891 -0.0010257569505 -0.0011037890644 -0.00013608164358 0.0015731095251 
0.0014772979598 -0.0011380417797 0.00092975690327 -8.7501445925e-05 -0.00012781215063 1.7382326518e-05 -0.0013046550949 0.00026135495448 0.00041392213249 
-0.00056903177239 -0.00045884091151 -0.00089579045966 3.9279419099e-05 1.5917712148e-05 4.0310784428e-05 0.00011527486657 -6.3512903481e-05 -2.7451023441e-06 
7.7065154795e-06 -0.00071065241188 0.00021676195086 -0.00030348486894 -2.6918330018e-05 -0.00017692111255 2.5663193847e-05 2.2862357993e-05 6.2955624389e-05 
-0.0002163181354 -1.3792975087e-05 -2.8193916714e-05 -0.00015017095519 -5.9716959335e-05 -0.00026344409379 0.0004008250739 -3.2460299935e-05 0.00049369215035 
2.6765466996e-05 1.1230405204e-05 -5.8816298825e-05 -0.00021473133555 0.00053445394525 -0.00019717758126 -2.300819167e-05 7.511990196e-05 2.5954054755e-05 
0.00011386080834 -9.6565050773e-06 1.2591692088e-05 -0.00013557236735 -0.00012973874793 0.00022288262256 -0.00070499469521 4.3200384259e-05 -0.0002534136718 
-1.1574229505e-05 -0.00011833609446 -0.0001338891522 -0.00013072120939 -0.00020801501277 0.00013469474282 -0.00035424921495 -0.00048255358518 -0.00073265467183 
-0.00034126221795 -3.4890656551e-05 6.3365204778e-06 -0.00042759687046 0.00013177237681 -0.00039721575541 0.00017976352027 -6.2432758506e-05 5.0617281972e-05 
0.00015873790635 2.9154302273e-05 -0.00024606712643 -0.00015387101676 -1.1336897732e-06 0.0001614159561 -0.00048695456791 -4.4077207438e-05 -0.00052286124658 
0.00047497738453 -0.00029123272101 -0.00056920893505 -0.00015879367168 0.00018917192075 8.6703236846e-05 -0.00019264888058 0.00019552525684 -0.00073972243759 
-0.00013547275095 8.401627954e-12 0.00032163372989 0.015090588425 0.00035747044419 -0.0029509978394 -0.012630007079 7.9843909633e-05 0.02812199113 
-0.00026402989518 3.6516866133e-05 0.00018975584328 0.0008813035832 0.00012078504748 5.3783555616e-05 -0.00027438212341 -0.00043159874293 0.00011427141554 
-0.00040947493477 -0.00032599226948 -0.00043040802215 -8.9159583325e-05 0.000161733861 0.00012734302585 -0.0022116967473 -0.002652892499 0.0046628100793 
0.00047063390355 -0.0008375244452 -0.00043750301781 -0.00016121035667 4.6844327311e-05 0.00013210647394 0.00044313406912 -0.00031260360075 -0.00027802914493 
0.00083160527383 5.206023734e-05 -8.5325453246e-05 0.00014042798283 6.0242716329e-05 0.00036782034695 0.00049278207746 -0.00077563996097 0.00041772367451 
-0.0014099972499 8.9565480542e-05 -0.00077003266018 -0.00015145883265 -0.00011756855075 0.00019833909082 -0.00047944966637 -0.00031881558687 -0.00017411624313 
-0.00048853356151 -0.00092332550368 -0.00039875165223 -0.0002729287841 0.000497347207 0.00059022177323 -0.00020065554971 -0.00083684080807 -0.00092692873951 
7.0528096139e-05 0.00010987827488 -0.00038946805295 0.00051356075116 -0.00015884058426 0.00088619587207 0.00015746543214 0.00035115219432 -0.0004364950582 
-0.00027736766198 4.9064963062e-05 0.00014483625182 3.1672279288e-05 2.016529883e-05 7.6254297014e-05 -0.00036921577672 -1.2928036435e-05 -0.00013408402292 
-0.00016645329273 -2.7693034611e-05 0.00034353679302 -0.00041339110769 -0.00071788337318 -0.00079012485154 -4.8287116588e-05 -0.0004763202266 -0.00017502840267 
0.00048230970146 -0.00083739185906 0.00037060638085 -1.949315615e-05 0.00019246628122 -0.00014865626536 9.5223444776e-05 -7.6334859992e-05 0.00016748739003 
-0.0005470399653 -0.00039669972766 0.00012930975288 -3.3176028633e-06 -0.00017240804743 -1.5511081004e-05 0.00053166022965 -0.0002887080652 8.621912981e-06 
0.067901557848 -0.05546723104 0.11537790723 -2.7996338399e-06 -0.00042337314155 -0.00027958207756 -0.00061206557479 0.0005427303169 0.00064711707208 
-0.094127472639 0.014122659695 0.17999495394 -0.0005024740009 0.00016826580459 -0.00070042454682 0.00020887507011 0.0029037312872 -0.0024681745614 
-0.00011592305313 -9.106716652e-06 0.00034071027033 -0.0019130331278 -0.0018880374028 0.0033355926444 -0.00046321128779 -0.00027425334239 -0.00037855336574 
0.00036379493154 -0.00053609076215 -0.00022218194165 7.7339625617e-05 -8.5563637599e-06 -0.0010948019302 -7.3557370039e-05 -0.00051776261662 0.00024333204935 
-0.00037611156185 -0.0004830518059 -0.00020475197145 -0.0002985358894 -8.6253408076e-05 0.0005394473718 0.00045661126496 -0.0010044133099 -0.0001313732908 
0.046663086321 0.0096874107067 5.2402291087e-06 -0.00010590726665 -0.00094736637675 -0.00094449902582 -0.0010097187883 -0.00043465149232 0.0010442971633 
-0.00039626537658 -0.00012849281551 3.8854811541e-05 0.0013154774324 -2.1273755109e-05 -0.001691877953 -0.00025063368922 0.00020216768283 0.00013687526101 
-0.0011303249908 0.00021943069535 7.7083808249e-05 -0.00039357525266 0.00011540764338 7.1448817565e-05 -0.0013923277399 3.7338156506e-05 -0.00046519263131 
-0.00031312542665 -0.00040330271882 0.00029814657703 -8.2483010801e-05 -7.0576239872e-05 6.3890560097e-05 2.2632666782e-05 6.4167994312e-06 7.057159217e-05 
1.5454386036e-05 8.7635064952e-06 0.00016102004214 1.593364015e-05 -0.0001709234231 0.00033663695854 -3.2780141702e-05 -5.0861195994e-05 -4.080091652e-05 
-0.00012605611392 1.4019274372e-05 -0.00013784676391 0.00011576451326 8.0944954708e-05 -1.3568259793e-05 0.00033254150193 -0.00018547411613 7.1969098219e-05 
-3.5887173791e-05 5.9948443199e-06 -9.7181150263e-06 -0.00015541248412 -0.00010575490294 -0.00030322064665 -5.8460063367e-05 -3.1927648708e-05 -1.3117032136e-05 
8.5411249443e-05 7.8713042034e-06 -5.87563206e-07 -3.2179297324e-05 -3.9040688934e-05 2.8044405358e-06 -3.0374835393e-05 -7.2614973926e-05 -0.00013250689166 
0.0001867536674 -0.00019078649161 0.00010189267597 -7.7509783153e-05 3.0045332038e-05 4.9328769984e-06 -0.00036367337663 -1.9527673713e-05 6.4840169445e-05 
-0.0001475307696 0.00015481890715 0.00015848014792 0.00018592262128 7.5415550946e-05 -0.00010942093548 -0.00010154932377 -9.9066921608e-06 -0.00014482205587 
0.00010470716397 -0.0001064284442 5.944060697e-05 -0.00038435606654 0.00016923301801 -2.2645433479e-05 1.2587861352e-05 -4.5693718914e-05 -0.00010674553602 
-0.00039112164047 0.00024400304435 -0.00016382305504 -0.00011354138494 -0.0001970547009 -0.00019117718777 -5.8199729272e-05 -0.00025737939765 -0.00052052219733 
-0.00022872064911 0.00020492706847 1.8539767354e-05 9.0963428456e-05 -8.6397325384e-05 8.4300016486e-05 0.00011873155921 -0.00015873649299 7.6639511746e-05 
-1.1915104413e-05 -4.69960082e-05 -0.00018928700587 6.6735533206e-05 0.00014260846681 -7.9357429512e-05 -0.00057540555172 -0.00016243498969 0.00013250660874 
4.7552877265e-06 1.9494101952e-05 -0.00043297253763 -0.00094380268293 6.0556328528e-05 0.00073309041955 -0.016928520184 -0.00057725281555 0.018991671089 
-6.0139883588e-05 0.00028394158482 0.00020543617749 -0.00022961842565 0.00017241796647 0.00030466190663 -0.00028835959709 -0.00033591383487 -0.00044563332621 
-0.00010187739808 2.9735175212e-05 5.4374670024e-06 -0.0019251074298 0.00045991738988 -2.6242296383e-07 -0.00035590515272 -0.00010555829822 -0.0002211817239 
-0.022446179678 -0.0042096705139 0.010968769318 -0.00040293537801 0.00013266812145 0.00017569660492 4.6844401669e-05 -7.8956553688e-05 -6.5182525211e-05 
2.6093467088e-05 -0.00011989459641 0.00022178770993 -0.055324804613 -0.040005076806 -0.027254440825 4.2457996716e-05 0.00024732438759 -0.00010532974868 
5.984562917e-05 -0.00049672232491 -0.00020475530554 0.00037042603003 -0.00012833306018 0.00047242337716 0.00033848608801 0.00026556184437 0.00049473598937 
5.7131326653e-05 3.0509849732e-06 -5.4505958498e-05 4.8556941363e-06 5.7519420133e-06 0.00031121438181 6.7923050932e-05 -0.00034127990899 -0.00012729576269 
-5.4674224111e-05 -9.315298865e-05 2.6284825282e-05 -6.8021425909e-05 -8.614492086e-05 0.00066775732264 -0.0018744839705 -0.00036005923381 -0.0050105460067 
-3.2830317088e-05 -0.00027585420867 -0.0005217650798 -0.00068709278001 0.00017368207157 3.5729719884e-05 -0.00014934013902 -2.2772817975e-05 -0.00074200104333 
0.00025784325779 -0.0010232023617 -0.0014646671584 -0.0005699848561 -0.00080990781299 -0.00085692490525 -0.00035591838328 -0.00014340968649 0.00033419399366 
0.00026496007333 -0.00010941233886 -0.00038110853585 -9.123098216e-05 0.00033382695102 -0.00028017247666 -0.00027440736252 -0.00081148657009 0.00069009408389 
5.2368473931e-05 -0.0003497686951 4.2313826253e-05 0.00018819348642 -0.0014966605928 -0.0017672328856 -0.00014353279158 0.00015979656359 8.6133422482e-05 
-0.00037832599522 -4.505593234e-05 5.9120066182e-05 -0.00093281939009 0.00077059455944 -0.00042796262575 -0.00020263163948 -0.00036194179114 -0.00059745846585 
-7.5937571115e-06 -7.053503188e-05 0.00018745789429 8.9076565634e-06 -0.00043022585442 0.00020601415868 0.00031482773738 0.0001667236286 6.1346010693e-05 
0.00030666386241 -3.7570253794e-05 5.5187651766e-05 -0.00040010256898 2.0293780359e-05 -0.00026024126606 -9.7780396691e-05 -0.00052628144846 -8.4096359445e-05 
-5.4727854796e-05 1.5775713016e-05 -6.7578790166e-05 0.00012808935385 -9.1757991783e-05 -0.0002004543624 -2.53016731e-05 9.7823461387e-05 6.2085077388e-05 
6.4553140114e-05 -0.00014493007019 -7.3717141076e-05 -4.9908589358e-05 8.9625699856e-06 -2.8456297744e-05 1.3012657128e-05 -0.00028330975236 0.00012295053996 
0.00016434882332 -0.00022112913582 -0.00018267930534 -0.0042717091196 -0.0032755588966 -0.00034033370429 -1.2736428631e-05 5.5970641688e-05 -3.6853509338e-05 
-0.035256803014 -0.00045775464519 0.028369578486 -0.00012382631164 -0.00010873128773 -3.4873109203e-05 -0.00025096961317 0.00022382110913 5.2328739184e-06 
-4.5817910909e-05 -9.8254840555e-06 2.1996578379e-05 -6.2680952771e-05 0.00029083286918 0.00010122856918 -0.0001609654476 -7.2532296884e-05 -0.0002873837275 
0.0001183989238 -7.2002184565e-05 8.0481478341e-05 0.00062248255284 1.4937311308e-12 -0.0040186908736 -0.00019609088939 1.026413295e-05 -5.4792958893e-05 
-8.2696398494e-05 -6.6706366267e-05 -4.5178175509e-05 -4.6804354513e-05 0.00012535431723 -6.4668676604e-05 -0.00063600379704 -2.9854328913e-06 0.00012744218303 
-9.6150113222e-05 -1.2663730102e-05 -2.009352338e-05 0.00021836080021 -0.00017393959201 0.00015379248395 0.00012512672338 0.00014796288369 -0.00015798786615 
-5.969348323e-05 -2.8044604202e-05 -1.3065938222e-05 -5.7160829708e-05 -8.1622742072e-06 0.00012137076799 7.5695820324e-05 -1.8591224301e-05 0.00017713871063 
-0.00091459283425 0.00014630985524 -0.00053708464768 -0.00022853455052 -4.5874680069e-05 4.9993613124e-05 -0.00021224568938 3.438454159e-05 -0.00012318350643 
-0.00023776762823 8.0029993968e-05 1.9976547263e-05 0.00022130871806 -3.1941170646e-05 -1.0505260659e-05 -0.0001710020947 -3.9325122674e-05 8.9961821077e-06 
4.9354974845e-05 5.1662919345e-05 1.5171697222e-05 0.00017029777246 -0.00010363411036 5.341290588e-07 -0.0001131029347 1.2690740738e-05 0.00012408462955 
0.00015215938746 -6.4278838881e-05 -0.00027314690933 -0.00024840738167 -0.00014578476598 -0.00028072728204 -0.0005601151666 -0.00023271237012 -0.00048078358869 
-0.00022497478957 2.4582046902e-05 -0.00020975393247 -0.00029541716265 2.4583831653e-05 -5.6425158977e-05 6.9395560339e-05 -0.00049887266214 -0.00042567049329 
-0.0001191538993 -2.8816622428e-05 0.00010781716484 0.0001690130273 5.7626979054e-05 -0.00014313259158 -0.00045237478563 0.00014134306624 -0.00068765266233 
-0.0022907651428 -0.00058991692172 0.0019062185022 -0.00054241892727 7.7921821237e-05 -2.6652221544e-05 -0.0020099851724 -0.00068458187536 0.0014623389827 
0.00016354817323 0.00018214562449 0.00012227907551 0.00014826164043 -0.00042045251493 -0.00036882401085 6.5503767967e-05 -7.4816374333e-05 0.0003503800601 
-0.00017428479943 0.00013964298864 -0.00035340708677 -3.5600073252e-05 -0.00025587083389 -1.4153606443e-05 0.0030797263745 4.1906585231e-05 -0.0005572225952 
-0.00020683784754 -5.6766966384e-05 5.6102136098e-05 -6.9325372399e-05 -0.00013857415643 0.00027084081404 -0.00089488533437 -0.00046659692681 -0.00012501314959 
0.00048504739864 -0.00024706640819 0.00031506027654 -0.00012790636752 3.7194894869e-05 -0.00014866984506 9.674795702e-05 -0.00032528123142 -0.00055237961607 
-0.00015551954193 -0.00032719300911 -5.0036328913e-05 -0.00054575754745 -0.00053934176068 -0.0010211952827 -0.00089900181956 -0.00058825313561 0.00034739123267 
-0.00012470281986 -0.00025034387345 1.9263022038e-05 -0.00081647675667 -0.00028436115008 -3.2754106857e-05 -0.00042820578426 -2.3138177093e-05 0.00022501506778 
0.00018229936161 -0.00057746216011 -0.00011623086175 -3.5018830334e-05 0.00018693340924 -0.00036639381968 5.0671879227e-06 9.251364559e-05 0.0001354257535 
-0.0013108903494 -0.001369662646 -0.00065009783847 0.00031476755742 -5.6927708536e-05 0.00083627043802 -0.00059943337485 -4.1268908482e-05 -0.00043949116393 
3.1031319221e-06 -5.099034553e-05 0.00015519178602 0.00067991497178 -0.00075333634894 -0.00015652970793 -0.00033613968726 -1.2020284231e-05 -0.00012367743627 
-0.00050378618096 -0.00050926125869 -0.00091471879539 -0.00011942961628 0.00017584531569 -0.00044174215261 3.4236909373e-05 -1.1845463771e-06 0.00046180464084 
0.045916849742 -0.0081960879276 0.026740419718 0.00023723713637 -0.00054592141746 0.0009668228682 -0.00033603083404 6.2016752797e-05 0.00015589448748 
-0.00014410714408 6.3636573938e-05 -9.5333400952e-05 -4.3233184457e-05 7.8814243743e-05 -0.00015601729653 -0.0018527861542 -0.0022160957922 -0.010266312047 
2.4458979176e-05 0.00010462005282 -0.00018960986334 -0.00013596404957 0.00015456952587 -8.6632933154e-05 8.098622522e-06 -7.1936025164e-07 -0.00021758136567 
0.00018848643043 -9.4653285445e-06 -8.0980175301e-05 -0.0001929890544 0.00022599449666 -9.6072157913e-06 4.2549781022e-05 -0.00015862571806 0.00022266018448 
7.4446832767e-05 1.378804804e-05 1.8132204585e-05 -6.570225765e-05 0.00020844592404 4.3712393837e-05 0.00035759035346 0.00038138523421 -3.9421839366e-07 
-1.9207623106e-05 -2.4844339049e-05 -3.6189243434e-05 -8.518972175e-05 -2.1223179584e-05 2.4224254693e-07 -0.00016109887682 -1.1539099294e-05 -4.146289656e-05 
-8.291899399e-06 9.1355962849e-06 0.00054020187049 -2.0667203195e-05 -3.3344087918e-07 2.473225401e-05 -0.00028102460485 1.3905975747e-05 -0.0027202441747 
0.00021158845627 -0.00021705247349 0.00035245345392 -2.6617016331e-05 -8.6890637213e-05 4.2236290206e-05 3.6815315587e-05 -2.9056022758e-05 0.00014859699085 
6.5915381719e-05 -1.3358251469e-07 0.00021467180367 -0.00017959638832 -3.113033062e-07 0.00021550118085 -0.00019103343399 9.9735882337e-12 -0.00013140799591 
2.8389059718e-05 0.00014240005251 -9.2871424953e-05 1.5715648138e-05 -6.1467315922e-05 -1.9782178635e-05 -8.3143917719e-06 4.8199068015e-05 3.9918465788e-05 
4.1942948359e-05 3.8177943763e-08 -0.00025872778559 -4.7599024373e-05 -2.433337941e-05 -0.00016989314543 9.1800661401e-05 -3.6960365825e-05 -5.0983421945e-05 
5.4302564879e-05 -7.9100135418e-06 3.8592691447e-05 -4.9318803524e-05 -0.00016861310026 4.0024965142e-05 -0.00030098667781 -5.1322129298e-05 8.7750651091e-05 
-1.2900737552e-05 0.00020863753613 3.5791108783e-05 -0.00016584100277 3.9871887052e-05 -0.00010699110388 -0.0046306931893 -0.0015570891508 6.4154448577e-05 
-0.00016140634765 4.54294593e-05 0.0002344374315 -0.00063729475353 -5.8703178919e-05 -8.435733389e-05 0.00012047253228 -7.0002844498e-05 5.3430501319e-06 
-5.4667187564e-05 -0.00010218756172 -0.00020311601902 -0.0002240796963 3.5051368524e-05 -6.9444419943e-05 -2.4498717503e-05 1.6348118522e-05 8.2144481641e-05 
-6.5686957664e-05 -0.00016125167069 -9.8784809357e-05 -0.00014537183479 1.4279521671e-05 -0.00012477361447 -0.00027713947824 -0.00013881437406 0.00010569892401 
0.00024083393156 -5.1012733289e-05 -6.5700409321e-05 -0.00022317942003 -0.000257824104 0.00014724616495 -0.0029031403955 -0.001817395153 -0.0036054016577 
-0.00063223779058 0.00029304473718 0.00025394414388 0.00010388626121 4.9460340212e-07 7.085123438e-05 -0.0030471862199 4.3010059032e-05 0.0019776843 
-0.0003122748856 0.00011897966456 2.7566110592e-05 -8.7262595672e-05 0.00047276235202 -0.00067017537058 -7.7133898185e-05 -9.9094112672e-05 8.41764953e-05 
-1.5333210135e-05 -0.0001049671529 -3.5792419327e-05 -0.00035691411014 -0.00013835101429 0.00012270977433 0.0001470634576 -1.5193885448e-05 0.00017091195649 
-2.3673652281e-05 -1.2548033295e-05 0.00015392372404 0.00017242453991 0.00022155844034 -0.00013540539368 0.00010256922151 5.8433703344e-05 -0.0002898262489 
-0.00021898070161 -0.00044339145264 6.2885118041e-05 0.0016612365767 -0.00083501932549 8.3784125646e-05 -0.00016773485812 3.4526378867e-05 9.3326040994e-05 
-0.00063467693528 5.233995787e-06 6.4339555812e-05 -4.0894393936e-05 -2.6461303697e-05 -4.6381119184e-05 0.0010612949949 -0.00024266474448 -8.2317887871e-05 
-0.00017099239262 -0.0011895536431 -0.00088640696843 -0.00090666131556 -0.00082048900446 -0.00065389516871 -0.00026534901613 2.6248306965e-05 -0.00037914114479 
0.00054037493438 -0.00012732590509 -0.00098501673152 -0.00016864311446 -7.9461454593e-12 0.00017557808342 -5.8454261683e-05 1.3004111679e-05 -0.00044970277495 
-0.00012799671365 -8.6391381862e-06 0.00029283233671 -5.475785763e-05 0.00014859174876 -0.00015028804423 6.8273844549e-06 9.5097493379e-07 -0.0011079935523 
-0.00035508658042 0.00025810633827 -0.00022125236571 0.033260825136 -0.01388708586 -1.3208599703e-05 -0.00010341637982 2.706486246e-05 -0.00042894662195 
0.00066285747764 0.00010517616224 -0.00060465125218 -0.00026218215611 0.00014488185112 -0.00078184804482 -0.00083167696534 3.0078135137e-05 -0.00018852095549 
-0.00014696738126 1.0473798617e-05 6.957694216e-05 0.023492910875 -4.5088948425e-12 -0.0034095707883 1.9667989804e-06 -4.5294926071e-05 0.00040414190845 