# vtk DataFile Version 4.1
vtk output
ASCII
DATASET UNSTRUCTURED_GRID
POINTS 1274 float
0.273684 -1.29448 -0.0534139 0.273516 -1.30217 0.0959423 0.279213 -1.29498 0.317697 
0.157796 -1.31604 -0.211001 0.298356 -1.29138 0.178217 0.411436 -1.23445 -0.0668445 
0.381151 -1.29114 0.322118 0.469747 -1.23549 0.492852 0.512127 -1.24358 -0.00832301 
0.63708 -1.25347 -0.0057928 0.538728 -1.34667 0.187556 0.640995 -1.22294 0.434168 
0.852372 -1.2727 -0.151172 0.843338 -1.25444 -0.0829445 0.657598 -1.29638 0.158128 
0.755465 -1.27581 0.265823 0.696176 -1.27021 0.218693 0.793496 -1.20808 -0.0449543 
0.637034 -1.20779 -0.0562713 0.672339 -1.34643 0.00782125 0.715618 -1.19083 -0.0821887 
0.690772 -1.30822 0.278109 0.391071 -1.23459 0.281964 0.615097 -1.27214 0.224826 
0.912686 -1.23675 -0.0762131 0.300927 -1.2505 0.128486 0.657476 -1.20803 0.363639 
0.813768 -1.19508 -0.113217 0.92112 -1.31397 -0.000223393 0.822425 -1.22942 0.0380063 
0.971487 -1.20864 -0.0147936 0.656934 -1.22802 0.0464218 0.557325 -1.2192 0.378496 
1.08243 -1.22308 -0.287925 1.03382 -1.24149 -0.141582 0.504101 -1.22156 0.280673 
0.78971 -1.27902 -0.0127479 0.634851 -1.27409 0.285642 0.40516 -1.25086 0.13777 
0.95235 -1.20302 0.0597715 0.851274 -1.22722 -0.208371 0.798083 -1.23311 0.160175 
0.837965 -1.21215 0.108713 0.748455 -1.22107 0.215841 0.903151 -1.24346 -0.00489131 
0.985467 -1.23848 -0.23637 0.891711 -1.25255 0.291665 0.886163 -1.21799 0.230431 
0.451747 -1.29943 -0.306791 0.167749 -1.33266 0.280757 0.145353 -1.359 -0.0654451 
0.0370368 -1.3352 0.173813 0.286153 -1.34237 0.471524 0.255734 -1.33812 0.385038 
0.239748 -1.31347 0.165151 0.379505 -1.35342 0.285038 0.153478 -1.34835 -0.272772 
0.3595 -1.41001 0.0557028 0.611656 -1.28938 -0.213142 0.217723 -1.35347 -0.221931 
0.399394 -1.34727 -0.151147 0.371427 -1.35534 0.404755 0.398825 -1.29309 0.394601 
0.277996 -1.34833 0.208994 0.213251 -1.3387 0.00565584 0.484993 -1.26638 -0.187321 
0.412975 -1.36079 -0.0236924 0.583315 -1.34514 0.299882 0.433041 -1.2826 -0.142623 
0.303977 -1.28411 0.243196 0.552611 -1.36018 -0.019177 0.376527 -1.27375 0.194388 
0.331408 -1.29847 0.061695 0.330305 -1.26184 0.445473 0.508687 -1.2276 -0.0835837 
0.623431 -1.4128 0.0996994 0.543613 -1.25134 -0.240571 0.212503 -1.28196 -0.175255 
0.568472 -1.35591 0.041774 0.541924 -1.30116 -0.0339019 0.3277 -1.26213 0.297933 
0.451035 -1.28856 0.450261 0.579691 -1.33514 0.469966 0.446528 -1.28105 0.264269 
0.51113 -1.2998 0.290838 0.451791 -1.36118 0.112076 0.616045 -1.3039 -0.0479486 
0.644063 -1.22753 -0.213958 0.972774 -1.28533 -0.284408 0.570515 -1.28657 0.172136 
0.474619 -1.28625 -0.250711 0.764499 -1.28927 0.343899 0.645393 -1.32736 0.220648 
0.577141 -1.23914 -0.0540746 0.999405 -1.26669 -0.0442098 0.741655 -1.25506 -0.0613331 
0.684782 -1.29038 0.0493724 0.876697 -1.34924 0.162218 0.603229 -1.25475 0.0795331 
0.780191 -1.23222 0.387986 0.790446 -1.24152 0.464788 0.545604 -1.26315 0.232629 
0.825925 -1.35957 0.207596 0.621943 -1.22545 -0.144892 0.68788 -1.23276 -0.0333792 
0.553119 -1.24111 0.123566 0.732375 -1.23672 0.0210302 0.808426 -1.30049 0.177874 
0.828878 -1.25071 0.340881 0.681271 -1.26715 0.329684 0.809133 -1.22666 0.532537 
0.91272 -1.24754 -0.369497 0.769455 -1.31027 0.0490661 0.437532 -1.25609 0.192631 
0.723858 -1.22676 0.535002 1.16366 -1.22132 0.0115942 0.628837 -1.26643 0.530016 
0.734233 -1.22569 0.317603 0.704835 -1.245 0.41568 0.578896 -1.24375 0.0151265 
0.958826 -1.29319 0.219165 1.10586 -1.23867 -0.167325 0.838787 -1.30533 0.0441403 
0.976723 -1.22619 -0.092224 0.908075 -1.28984 0.0618374 0.616172 -1.23688 0.147269 
1.32157 -1.19726 0.526005 0.738746 -1.25653 0.16088 0.939776 -1.22557 0.194283 
0.951902 -1.20855 0.42307 1.21216 -1.26381 -0.183038 0.904983 -1.23197 0.0976206 
1.04482 -1.22614 -0.00812097 0.863897 -1.2335 0.171954 1.10019 -1.25847 -0.032613 
0.963267 -1.26325 0.0318492 0.0866368 -1.41341 -0.246716 0.285873 -1.36065 -0.213167 
0.430084 -1.40919 -0.397639 0.0351688 -1.35952 0.315713 0.213192 -1.32123 0.482542 
0.0965822 -1.40799 0.156551 0.216674 -1.3441 -0.402017 0.500208 -1.31854 -0.34827 
0.0870744 -1.35981 -0.381552 0.493587 -1.34759 0.459597 0.250964 -1.27905 0.529061 
0.147287 -1.35436 0.379543 0.240973 -1.41179 0.29782 0.0965766 -1.35826 -0.012724 
0.276925 -1.32025 -0.156392 0.0800684 -1.35879 -0.289042 0.471872 -1.35384 0.309826 
0.348543 -1.40768 -0.0291929 0.129555 -1.3434 0.23047 0.213116 -1.33472 0.0980409 
0.21945 -1.29567 0.291516 0.320312 -1.29145 -0.294888 0.270901 -1.34801 0.0405191 
0.422335 -1.31824 0.166024 0.0823621 -1.29271 0.21523 0.515916 -1.30073 0.418945 
0.893047 -1.30024 0.533049 0.547128 -1.35587 0.420282 0.240648 -1.29494 0.228749 
0.318054 -1.35522 0.157081 0.318794 -1.35427 0.0927225 0.366869 -1.28853 -0.232283 
0.520294 -1.33312 -0.241305 0.492505 -1.29281 0.204152 0.548572 -1.22593 0.527673 
0.644458 -1.2872 0.408188 0.776653 -1.34068 0.462399 0.423528 -1.34421 0.22884 
0.676733 -1.41468 0.136518 0.589214 -1.22292 -0.399396 0.600993 -1.35842 0.188463 
0.854265 -1.22722 -0.316061 0.390713 -1.29515 -0.298379 0.82839 -1.29986 0.283795 
0.758976 -1.28956 0.419763 0.332577 -1.28438 -0.171945 0.571251 -1.2763 0.288602 
0.670112 -1.27293 -0.166599 0.490156 -1.24974 0.145406 0.879585 -1.29186 0.214333 
0.97024 -1.38752 0.088807 0.535618 -1.28037 0.0564935 0.995306 -1.25542 0.443766 
0.648716 -1.33019 0.34112 0.941803 -1.29612 -0.0630315 0.671402 -1.21092 -0.283819 
0.725534 -1.22912 -0.145222 0.791216 -1.30422 -0.080746 0.821005 -1.34988 -0.0456486 
0.739906 -1.31841 0.177897 0.702481 -1.35512 0.138593 0.859614 -1.29909 -0.0263071 
1.00898 -1.24927 0.0864585 1.06217 -1.27501 0.0385184 0.912213 -1.25109 -0.139912 
0.786889 -1.28893 0.11482 1.10888 -1.28556 0.393387 1.0043 -1.24683 0.189106 
0.818654 -1.24344 0.228998 0.69836 -1.2583 0.111 0.931263 -1.3617 0.216033 
0.857227 -1.28507 0.118836 1.19573 -1.36107 0.117271 0.94772 -1.35359 0.143862 
1.12381 -1.25918 -0.0982322 1.02643 -1.26101 0.275389 0.763017 -1.22458 0.0950062 
0.992876 -1.35476 0.196192 0.297592 -1.4153 -0.358891 0.199606 -1.37212 -0.327232 
0.0322034 -1.4135 -0.0346376 0.441279 -1.28069 0.531353 0.0339859 -1.41171 0.191307 
0.0880634 -1.32453 -0.10705 0.340209 -1.30688 -0.394474 0.0369042 -1.36208 0.0211673 
0.032648 -1.3452 0.4881 0.346355 -1.40639 0.198516 0.151599 -1.41314 0.444392 
0.323867 -1.34694 0.532516 0.0880301 -1.39511 0.227417 0.326548 -1.35888 -0.265537 
0.218137 -1.35084 -0.128909 0.247583 -1.41429 -0.200733 0.124717 -1.33755 0.153034 
0.31185 -1.29158 0.501959 0.0914535 -1.33712 -0.219892 1.00542 -1.41418 0.472973 
0.234009 -1.40735 0.202611 0.21833 -1.34179 -0.0601107 0.403405 -1.35842 -0.282338 
0.150895 -1.32362 -0.00109693 0.582359 -1.41374 0.215515 0.468927 -1.4131 0.144637 
0.452103 -1.28909 0.341116 0.273745 -1.35699 0.322794 0.194162 -1.36245 0.157561 
0.311427 -1.34574 0.2705 0.802704 -1.4127 -0.226343 0.190165 -1.38821 0.264688 
0.356739 -1.34242 -0.0621018 0.161703 -1.30575 -0.120723 0.394457 -1.41526 -0.141257 
0.293305 -1.35435 -0.0873292 0.465275 -1.33991 0.395974 0.479091 -1.25503 0.394933 
0.297782 -1.35994 -0.0220945 0.358296 -1.34944 0.0163401 0.800955 -1.29772 -0.212243 
0.378875 -1.36167 0.155191 0.336211 -1.34526 -0.17961 0.352458 -1.29995 0.131932 
0.377613 -1.29361 0.256158 0.347303 -1.3327 0.211737 0.525922 -1.23594 0.436756 
0.447932 -1.29517 0.108833 0.734824 -1.2596 -0.210259 1.05805 -1.36704 -0.147615 
0.310081 -1.30422 0.00397958 0.443612 -1.30487 -0.019839 0.836463 -1.41477 -0.140629 
0.613563 -1.36237 -0.0114288 0.649948 -1.36309 0.275178 0.501362 -1.35081 0.24442 
0.518219 -1.26091 0.345301 1.14791 -1.36791 0.380189 0.628702 -1.36899 -0.0746714 
1.1206 -1.28389 -0.219347 0.725285 -1.297 -0.116894 0.85345 -1.32468 -0.107571 
0.686907 -1.36361 -0.0514531 0.746117 -1.34168 -0.00649396 0.897829 -1.35459 -0.0555443 
1.05014 -1.2361 0.467605 0.635997 -1.31481 0.0923192 0.840838 -1.41501 0.253861 
0.652746 -1.25824 -0.0946556 0.895518 -1.3538 0.089887 1.0981 -1.31906 -0.00124651 
1.01078 -1.31126 0.00852684 0.813405 -1.37081 0.0466422 0.753275 -1.33964 0.102135 
0.69548 -1.29842 -0.0354232 1.05038 -1.34976 0.154861 0.854834 -1.41217 0.0915453 
1.18065 -1.23173 0.410052 0.994673 -1.29007 -0.105906 1.09743 -1.40835 0.172844 
0.963227 -1.37556 -0.0366245 0.971452 -1.31621 0.0849929 0.859097 -1.20964 0.455126 
0.0341698 -1.37727 -0.227807 0.0314946 -1.41421 -0.173581 0.0354918 -1.41021 0.467872 
0.0723811 -1.41424 0.307982 0.0837958 -1.37128 0.528368 0.0998513 -1.41553 0.479772 
0.0770502 -1.41064 -0.339185 0.166898 -1.39471 -0.39495 0.38446 -1.36052 -0.403686 
0.0336248 -1.41208 -0.285983 0.0512565 -1.41294 0.0665548 0.264646 -1.4091 0.470984 
0.035574 -1.41055 0.364079 0.240306 -1.4087 0.370502 0.142511 -1.41182 0.527409 
0.301159 -1.3542 -0.332121 0.142975 -1.41429 -0.331461 0.145806 -1.41471 -0.269121 
0.640426 -1.41014 -0.320143 0.424277 -1.41293 -0.237021 0.11577 -1.41367 0.0603718 
0.0974957 -1.34389 0.422044 0.392001 -1.33181 0.529311 0.109646 -1.35187 0.315705 
0.500924 -1.4062 0.40061 0.174981 -1.37141 0.0532647 0.310294 -1.40789 -0.168358 
0.292544 -1.41419 0.0897513 0.209766 -1.4097 -0.0930256 0.355036 -1.34893 0.469649 
0.316652 -1.32224 0.415509 0.291357 -1.40986 0.249618 0.713844 -1.35032 0.518712 
0.207032 -1.35177 0.332102 0.410756 -1.35013 0.349675 0.453593 -1.34852 -0.224124 
0.383497 -1.3558 -0.218968 0.06541 -1.35873 0.108994 0.45528 -1.40706 -0.172966 
0.243072 -1.35271 0.267338 0.263517 -1.35817 0.128609 0.420377 -1.35389 0.45069 
0.336775 -1.32101 -0.122263 0.457192 -1.41043 0.0499978 0.621447 -1.2864 -0.382316 
0.523152 -1.29215 -0.290425 0.569877 -1.41475 0.0649812 0.51855 -1.28592 0.489745 
0.648238 -1.41098 0.225439 0.550251 -1.35131 -0.29677 0.45659 -1.41397 0.209079 
0.680556 -1.36149 0.394785 1.07267 -1.2915 -0.269857 0.462804 -1.28383 -0.0797496 
0.427738 -1.34134 -0.085783 0.50185 -1.3263 0.0148845 0.438274 -1.34185 0.0377424 
0.529149 -1.33143 0.355524 0.571408 -1.28983 0.535691 0.942792 -1.25498 0.531368 
[...]
POINT_DATA 1274
FIELD FieldData 10
VELOCITY 3 1274 double
-2.0545404083e-05 -1.8615320977e-05 -0.00013920528778 -0.0001882554713 2.4475542105e-05 7.2033276739e-05 -0.00020695183485 -2.6986712805e-05 0.00018502526227 
-5.189824766e-05 -1.6287536708e-05 2.014761128e-05 -0.00010262899586 -4.359144896e-05 5.7842870302e-05 -7.8549773245e-05 7.8853058454e-05 0.00017360010431 
-0.00025894197052 -4.9082900207e-05 1.7056029033e-05 -0.00026663809392 -1.682456389e-05 -0.000138944849 0.00015860794182 0.00012738119165 -0.00062876110308 
6.4798626472e-05 -0.00014518411118 -0.00013393182896 -0.00016551068633 6.1210779704e-05 1.8500513623e-05 -0.00017495063574 -0.0002601147531 -1.7162087553e-05 
-4.715552311e-05 -9.7413391163e-05 5.1602659923e-05 -0.00011040230341 -1.3232351353e-06 -1.926754412e-05 -6.8257517419e-05 -4.1247101466e-06 6.5559810793e-05 
1.7349482277e-05 7.0755179814e-06 -4.4724255677e-05 -3.8797241799e-05 7.58790693e-05 1.8941205142e-05 -0.00030257527273 -0.00013894444968 -5.0189592373e-05 
-2.3598075267e-05 -0.0002130550972 -0.00018775289943 -2.4209669172e-05 2.0351607754e-05 8.2526349007e-05 0.00035356947639 -8.1743634817e-05 3.2591814945e-05 
7.9425427106e-05 -0.00011142200483 -0.00018006635574 9.1032272647e-05 -4.5921673429e-05 9.6610124771e-05 -8.076092584e-05 5.2914293907e-06 5.4903804095e-05 
-0.00012365719157 -9.8722996554e-05 0.00022789628162 -9.8736333472e-05 -1.9583293757e-05 7.7864705952e-05 -2.5426817512e-05 -0.00015068149303 6.5139110141e-05 
-0.00027714454711 -9.4445158091e-05 -3.0683891563e-05 -0.00012228813823 -4.8738119495e-05 4.718502676e-05 -0.00046571283375 -8.5138320702e-05 2.0422599818e-05 
-0.00021112900054 -7.4756095936e-05 0.00018285608954 1.2980948211e-05 5.4576765543e-05 -0.00023875530762 -0.00022395864691 -0.00016988609088 1.2483761022e-05 
2.7240779897e-05 -0.00018358513849 -2.0175516168e-05 0.00017280099678 6.742131804e-05 -8.2164242474e-05 0.00015674468333 -0.00019968961016 -8.0677351644e-05 
-0.00014819426434 -0.00018176948473 -0.00016762054602 -4.2717779457e-05 -0.00020282860556 3.0269893465e-05 7.9368295096e-06 -0.00015501517773 5.9764414993e-05 
0.00047978677718 -0.00030001467248 0.00032986421448 -5.5127998409e-05 -0.00029766340815 0.00010835897704 3.5762486054e-06 6.1798625569e-05 0.00012462746952 
-0.0001893431401 -9.4436780291e-06 -8.1912066004e-05 7.8929006106e-05 -5.6153096299e-05 -0.00010894252925 -0.00022787591444 -1.7713223723e-05 0.00034898453727 
0.00011014124941 -0.00017933417576 7.8822393366e-05 -1.700808198e-05 -0.00012357925593 6.4086641537e-05 -0.00046404850653 -3.4931058024e-05 0.00015235198901 
-0.00021047957943 -1.0840045013e-06 -4.9652767419e-05 -8.9866916075e-05 -5.2246863289e-05 -2.955682816e-05 3.7310987479e-05 -8.0666479766e-05 -8.3231238546e-06 
1.2447912756e-05 -0.00039931958724 0.00011882380075 -0.00018900881875 -6.2133759876e-06 -4.0458305557e-05 -0.00015894600566 0.00010712440456 2.9759119552e-05 
-8.3270187768e-05 -0.00010292495703 0.00023440396037 -9.1118741025e-05 -3.9877646822e-05 -7.9891013648e-05 0.0001187180106 -2.1505229589e-05 4.4147270403e-05 
-4.531872386e-05 -2.5660252058e-06 1.6060650397e-05 -6.4274363069e-05 4.4809472325e-05 6.6666573586e-05 -8.3838462178e-05 -1.3973224016e-05 0.00012943279683 
-0.00016049024293 3.9843314004e-06 0.00021314445571 -0.00018268375015 -0.00012843081458 -6.8232556568e-05 -0.00034005053692 -4.9287806827e-05 1.2274537465e-05 
-5.872679782e-06 -6.3887798444e-05 0.00014277357563 -0.00014794093102 -0.00022622971722 0.00023403856765 -5.8430948037e-05 -0.00014136312786 -6.7442898099e-06 
-0.00025919973846 5.3602039358e-05 3.6052267465e-05 -0.00010056905787 6.8595499776e-06 3.9345746409e-05 -0.00013182011755 5.2334228753e-05 -5.2110182855e-05 
-0.00013625739637 -3.3330853414e-05 6.2806781692e-05 -0.00019684148006 4.3570455376e-05 0.00017870235604 -2.8784127682e-05 -6.4946965022e-05 3.1752522488e-05 
0.00018474938254 -0.00017716799757 -0.00015754880709 -0.00018593057788 5.1242558643e-05 -9.7963440509e-06 6.5139549461e-05 -0.00011934370367 -0.00019514014394 
-0.00010418985582 3.90405069e-05 8.5875038596e-05 -0.00022125914853 -0.00011123254404 7.8537997359e-05 3.531031102e-05 -8.3069935964e-05 5.9673899748e-05 
8.9534296439e-06 4.1110438967e-05 0.00021320876663 0.0013524970157 0.00032482419697 0.00030405536823 -0.00025109469359 1.8917233374e-05 0.00010304966143 
-0.00024644149772 -8.0975902624e-05 5.6387720439e-06 -0.00023929260888 -0.00017432207827 9.7587940551e-05 4.7163946287e-05 -0.00010607097707 1.7612377263e-05 
5.2157970114e-05 -0.00030377406978 -0.0001973106896 -0.00013466869989 -5.9300277334e-05 -8.9062842229e-05 0.00023581354616 -0.00022134397274 -0.00013284786378 
0.00023982283733 -0.00012217920859 7.9857427157e-05 5.3131025668e-05 -0.00017687671295 0.0001049616973 0.00017613353297 -0.0001658044984 -0.00013819651889 
-0.00023477497137 5.6890290308e-05 1.4493984584e-06 -0.00010390013494 -5.8978215404e-05 -7.3444453645e-06 -0.00010624150501 7.2242065485e-06 -3.5913198796e-05 
5.0447729223e-05 -0.00032387873156 -0.00021808451879 -8.815882867e-05 1.5573569444e-05 0.00016321795805 -5.2690595712e-05 -0.0003409210039 -0.00029166553326 
-2.063236088e-05 3.5762085032e-05 -4.0217230247e-05 0.00013348608933 -4.8918662026e-05 0.00011561250728 8.3508772733e-05 -1.3755275051e-05 -0.00017061530163 
-2.7275058124e-05 3.5415116073e-06 -7.6359597809e-05 -0.00022563702038 1.8374428103e-05 5.5864805207e-05 0.00010039124743 -9.4142755149e-05 -0.00019442271255 
-0.00019908994976 0.00010992753877 0.00012325212492 -9.5895330247e-06 -0.00020943816086 -7.5316137895e-05 8.4889810106e-06 -0.00013054012382 -0.00021929866698 
4.0343088637e-05 -0.00025684539642 -0.00018082644374 -4.33416382e-05 3.6364417325e-05 -0.00016481618185 5.7583938409e-05 -1.1687443927e-05 -9.6374683562e-05 
5.1021644223e-05 -0.00020584583446 6.3221319182e-05 -1.9554973559e-05 -1.5096926349e-05 -0.00015423162323 -4.5985551154e-05 -2.3181669547e-05 1.0601813875e-05 
0.0001033104089 -8.0582898524e-05 0.00014855004329 -0.00011896652778 -0.00036837069236 8.3686907193e-05 -2.5688467756e-05 -6.0873135592e-05 7.1538738468e-05 
-6.6727625095e-05 -4.1740116724e-05 -3.6532183686e-06 0.00010534198451 -0.00012774461844 -8.1847169206e-05 -0.00015729205048 -2.1678226591e-05 -0.00010464554266 
2.499814393e-05 -7.93850123e-07 2.6930985167e-06 -5.5963336135e-05 7.0521629495e-05 -1.0865049405e-05 1.936381012e-06 -0.0003439185929 -0.00022410717972 
0.00012123039115 -0.00034828966864 -0.00020684255784 0.00012657992883 3.03975214e-05 -0.00014931605294 -0.00018948329396 -1.379542473e-05 -6.3608345737e-05 
-0.00017280144232 -0.00010417211182 7.5700592722e-05 -0.00016511864595 -2.9567611656e-05 6.5766518832e-05 -4.0244024377e-05 2.9970907449e-05 -0.00017713614729 
5.8500719975e-07 -3.7676852161e-05 -5.6909628749e-05 8.2071804074e-05 -9.3148985547e-05 -0.00011834770928 -0.00037427409538 -0.00022428223831 0.00037423082164 
-0.0002559939777 -0.00016125337322 5.1882853661e-05 0.00024063175097 -0.00029189600516 -0.00013827863079 -9.331836899e-05 7.9085868427e-05 -0.0001387868949 
-0.00019635764043 -0.00021906445357 -9.2000276751e-05 3.69855299e-05 -6.9175622323e-05 -1.3515717178e-05 -0.00029801202559 -0.00015925558546 -0.00026793155077 
-7.9011222617e-05 -0.00024352669027 1.6918731923e-05 -2.7517343729e-05 -4.0544991253e-06 2.5078963869e-05 -1.8367623765e-05 3.8981204804e-05 -3.643437855e-05 
5.4663824302e-05 3.1220326627e-06 -3.7086972464e-05 -9.7046062998e-06 4.93211997e-05 0.00018925044694 -5.6256128532e-05 -5.6440886466e-05 -2.4957891743e-05 
-7.0438865817e-05 5.0891847602e-06 -0.00012622023341 2.1023264457e-05 4.5473444653e-06 -9.9618696513e-06 -0.00019458388489 -6.5363605829e-05 2.4903705797e-05 
-1.5642902035e-05 1.7234502099e-05 -1.9800630432e-05 3.862044682e-05 7.4146960836e-07 -0.00012824335865 -7.1437721081e-05 -4.41260223e-05 -1.5184981159e-05 
0.00011823655188 -2.5092383233e-06 5.3397685147e-05 -5.8107364658e-05 6.869853118e-06 3.3193038147e-05 -7.8178709185e-05 -4.4438584339e-05 -0.00011502719866 
-5.2338099678e-05 -0.0001738370344 0.00015905278324 -2.2732359027e-05 2.0842188537e-05 -4.7391857722e-05 -0.00022286686567 -7.2532710513e-06 -6.1196901694e-05 
-0.00013135537923 0.00019977278292 0.00016331039366 -9.9414417638e-05 5.3540203611e-05 -2.7874486043e-05 -9.7437407111e-05 -6.778106848e-05 -5.5325317514e-05 
-0.0001360454317 1.5466691818e-06 2.4347843014e-05 -0.00019510328581 3.7220503858e-06 3.509026037e-05 3.6254576835e-05 -4.2210767537e-05 3.008086446e-05 
-2.1152198675e-05 -2.2083892213e-06 -7.1939404513e-05 -0.0001749393084 -5.2966933583e-05 -4.9039514976e-05 0.00030030069621 -8.773026567e-05 -5.856580343e-07 
-0.00012895401229 1.3956975241e-06 0.00014045568736 0.00012393119317 -9.3196406172e-05 -7.3109150838e-05 -0.00013664547875 -2.4807656542e-05 1.5477959809e-05 
-7.3964223745e-05 4.8089274413e-05 3.421718768e-05 -0.00012417837822 3.9069089337e-05 0.00014389323037 -0.00021219780204 -4.4398747125e-05 2.7204888687e-05 
-4.6061644529e-06 -0.00020861898362 5.1632615213e-05 -9.9074608254e-06 -8.8614628355e-06 5.195929405e-05 -3.2032959223e-05 -5.0152290092e-05 4.0993347295e-06 
-0.00010010880811 0.00014855004832 -2.7941967021e-05 -0.00019475701958 5.1812848233e-05 0.00019678269856 -0.00027499828076 6.2026607345e-05 -8.4223132209e-05 
-0.00012196366085 -1.1525717963e-05 3.0221437141e-05 5.0421906589e-05 -0.00029223150601 -5.8792797317e-07 -0.00014003142913 -1.2320926146e-05 5.9008400324e-05 
8.958798741e-05 -0.00019216914626 0.00020076401434 -0.00018675590176 -1.7106381564e-05 7.7668875095e-05 -6.1844940817e-05 -9.3968210247e-05 5.4488682475e-05 
-4.4831579792e-05 6.3092869281e-05 -0.00011858928124 -0.00014478213152 -9.2830474512e-06 8.4533988419e-05 -2.142555672e-05 -4.8388760669e-05 -0.0001108345655 
-2.7798829373e-05 -0.000281102392 0.00010493104566 9.5561648603e-05 -0.00013804986189 -2.8121396282e-05 8.3638850838e-05 8.9622683394e-06 7.4110754043e-05 
-8.4988229981e-05 0.00016706252863 1.5609428815e-05 1.2285248592e-06 -3.3149477628e-05 1.8739572421e-05 0.00020693278614 -8.6070080187e-05 -5.1815004051e-05 
8.3157632596e-05 -4.4377394228e-05 -1.0950826775e-05 8.4601761089e-06 -3.331352927e-05 0.00010949264269 -0.00016540948205 -0.00021663940869 -0.00014382662937 
-0.00013121838545 -6.4624923973e-05 -6.0693136337e-05 -8.3525844125e-05 -4.4520828836e-05 -3.7114692121e-05 9.1006812891e-05 -2.9051935578e-05 -0.00020347330572 
-7.5150472688e-07 -6.3806654837e-05 -9.7203891701e-05 -0.00027561392554 -4.9114246962e-05 0.00016776155742 -2.9564808429e-05 -3.4306564189e-05 0.00013364148927 
0.00010434211895 8.2117317663e-06 -0.00017687287737 6.2628190216e-05 -0.00015310274966 -8.728126708e-05 -7.1940617884e-05 -6.8127842858e-05 0.00022047007571 
-4.9870010479e-05 -0.00016017296703 -0.00012594108792 -0.00027513638478 -0.00069498781533 -0.00060408903216 8.4995955887e-05 -7.6617848829e-05 0.00018523411567 
3.3821839847e-05 -3.9302287581e-05 2.2408906696e-05 -9.837168147e-05 -4.508062228e-05 2.2482845316e-05 -0.00024751816318 -0.00023380201508 -0.00031791794759 
-0.00012698205261 5.1086731566e-05 -3.7466843636e-05 -5.2919139897e-05 -0.00010960934025 5.0555374066e-05 6.5031560663e-05 8.5526212385e-05 0.00011192885132 
3.2497267876e-05 -0.00017052653913 -0.00017156346124 -3.1178791832e-06 -0.00014897623035 4.1407089032e-05 -5.2907484695e-05 -0.00018398534807 -9.0483708886e-05 
-0.00016361379049 -0.00066808482277 -0.00025194071122 0.00017856281891 0.00013153849792 -0.00013983156385 1.2425750195e-06 4.159548724e-05 5.2254864818e-06 
1.0832934849e-05 -2.3703144071e-05 -6.0661109228e-05 -9.4426370824e-05 -4.7247469078e-06 -1.8148942295e-05 1.443014013e-05 -0.00025982817772 0.00017185283373 
4.7017897527e-05 -0.00016917702773 -2.2375710534e-05 -1.825200394e-05 -3.2123176292e-05 1.3555182444e-05 1.6261001356e-05 1.1933616552e-05 5.0703271156e-05 
3.0644278512e-06 5.3372256689e-05 -0.00018372667531 -0.0001220654861 -5.9078292175e-06 9.1796560771e-06 -0.00030330352806 0.00012951736281 -0.00019875110113 
-0.00010059956821 -2.3800154546e-05 2.6365112052e-05 -3.6839235761e-05 6.8925886451e-05 2.0332509366e-05 -3.3488845781e-05 -8.8999389217e-06 -2.299836636e-05 
-6.4972384969e-05 -8.0432371676e-05 0.00013111715887 -0.00061799765897 7.3975390738e-12 0.00080473983803 -0.00018440056698 5.0635446957e-05 4.0296082114e-05 
-7.4598841076e-05 -4.9340945744e-05 -5.4752911267e-05 -7.959676412e-05 0.0001643544499 -6.5515619145e-05 -9.1724049606e-05 9.1701053444e-06 6.1739118782e-05 
-0.00013928883003 1.4311262084e-05 -7.7465421266e-05 0.00012615783635 -0.00018086160407 0.0001526865933 -3.8285423014e-05 3.1712208137e-05 -2.536186022e-05 
-7.0633661846e-05 -9.2472409836e-05 -4.2263005e-05 -1.231052806e-05 4.3185026636e-06 0.00015364609368 2.9570466843e-05 5.5848663073e-06 0.00013450863453 
-0.0002893530405 -2.6755745946e-05 2.6611883694e-05 -0.00014452431632 -6.4747491416e-05 2.8242364245e-05 -0.00017408174436 9.498241983e-06 -2.2324194101e-05 
-0.00011686028854 -4.6624705563e-05 6.8238662611e-05 9.9946970435e-05 8.9890584574e-06 -0.00013627182577 -1.8258245241e-05 -0.00015645938706 2.2157764847e-05 
0.00024320058084 -0.00010528029032 -6.1642510549e-05 1.114172289e-05 -1.8870913007e-05 5.2067672807e-05 -4.7317138387e-05 3.8876604891e-06 0.0001477657597 
6.2341788428e-05 -7.0335484674e-05 -1.577746151e-05 -0.00019745106798 -8.2816827861e-05 -3.8127690453e-05 -8.0300920155e-05 -0.00015940781045 3.9481669748e-05 
-0.00012545887353 -4.9529482023e-05 6.0264317842e-05 -0.0002178438845 -1.7574161044e-05 1.8140290444e-05 0.00011651193756 -0.00018577595947 -9.4779875474e-05 
-8.8869548293e-05 1.58597019e-05 -3.621053068e-06 -1.5500501746e-05 0.00016929436411 -0.00010185804857 -8.6859129409e-05 -1.3289652887e-05 4.2428876969e-05 
-4.057645863e-05 2.6283015453e-05 1.0769555732e-05 -4.9191537887e-05 -3.0592915191e-05 5.7354253665e-05 -9.065745889e-05 -0.00014613307205 6.6097977292e-05 
-6.5549467283e-05 -2.7566405875e-05 -5.0909481226e-05 -2.0311000184e-05 -0.00037629101347 9.5725463343e-05 -7.1857842909e-06 -3.9447708965e-05 6.3943202095e-05 
-0.00018304597158 2.1227353557e-05 -3.4304787466e-05 4.5680426191e-05 -9.3622295716e-05 -3.6372865206e-05 -5.0017431411e-05 -2.4716899913e-06 4.2494047472e-05 
-0.00012923944322 -4.9539643666e-05 -0.00010846343487 -6.0920868923e-05 -7.5339422647e-05 0.00011006514788 -0.00019643178248 -7.5500231523e-05 1.8864930241e-06 
-0.00010765515335 -0.00021381544105 -1.9341476659e-05 7.0988645862e-05 6.5999110669e-06 6.1398805921e-05 -6.9824671033e-05 -7.7887107992e-05 2.4325942528e-05 
9.8437697209e-05 -0.00010522738017 -0.00011262863861 8.9131207887e-05 -0.00022309505264 -0.00040868368282 -0.00017894611293 -5.5967071788e-05 0.00015361024042 
1.6747568942e-05 2.3903136248e-05 4.8389911575e-05 -0.00016293005519 -0.00011392679303 -1.9823309312e-05 -6.7893312388e-06 -1.1806455982e-07 1.1730942694e-05 
9.3423181236e-05 3.7369679353e-05 4.2902016207e-05 0.00010486474262 -1.9362233741e-05 1.548990789e-05 -0.0002181456786 -2.0718699758e-06 -0.0001970204319 
-2.6917377186e-08 -0.00026106510802 -0.00014689965306 -0.00015371075564 -2.5225355341e-05 5.9181726456e-06 -6.5311173584e-05 -0.00029541148013 -0.00024246463908 
9.6220002075e-06 -0.00011277069619 -5.3733294508e-05 0.00019691247676 -0.00014386246975 4.0631471422e-05 -0.00021995446075 -6.3158190778e-05 0.00026621023917 
-0.00019561595849 -0.00014867016614 -0.00018690669362 -0.00012104098206 8.495388582e-05 -0.00014630702132 -2.2375768591e-05 1.0884215094e-05 0.00019514770068 
0.0001668721697 -0.00023173092347 -3.0191250364e-05 0.00012294200327 -1.4217580659e-05 0.00014538098858 -0.0003298249744 -4.0525870293e-05 -0.00027947392218 
-0.00015746187466 -6.3088642643e-05 8.9847361325e-05 -8.5392010864e-05 0.00010875522531 9.4830711587e-06 -0.00021593778596 -0.00015978956399 -0.00030214419686 
8.6200052762e-06 -4.9256419052e-05 -0.00020478279591 -0.00013906630075 0.00017557877837 -8.1585928168e-05 -1.3375983394e-05 -3.9511043167e-05 -0.00013771256844 
-5.3744686453e-05 3.5150294885e-12 0.00021754223253 -0.00020360955727 0.00011915702775 -4.3231995443e-05 0.00014538438292 1.8840571675e-06 0.00038170713861 
7.6357857195e-05 2.229417859e-05 -0.00010948711359 2.2678777366e-06 4.5921613543e-05 -1.2986487417e-05 2.0042162087e-05 -2.7477411244e-06 -4.6812198293e-06 
3.041046267e-05 1.9636779312e-05 -5.1724779665e-05 -2.8182841439e-05 -1.9558018936e-05 -1.693858609e-05 -0.00026862030831 -3.7846771052e-05 -3.9331187102e-05 
3.7899129063e-05 -2.7890892469e-06 0.00017044942396 0.00012487368785 8.4166035573e-06 6.5303219597e-05 -0.00021658270991 -1.987257747e-06 0.00028570038244 
-0.00021100572912 -5.2505648996e-05 0.00010853286026 1.1333968384e-05 -9.1255216221e-05 -4.3072765991e-05 -7.6782319507e-05 6.8719744911e-05 3.7894553094e-05 
3.3476061253e-05 -1.1884090876e-05 0.00010970186561 -3.7972819028e-05 1.0983637472e-05 3.7362664917e-05 -0.00014900789858 -1.8805656479e-06 -0.00011812833805 
5.4507372299e-06 4.6450931374e-05 -7.0692492724e-05 -8.86237505e-05 -6.5954465672e-06 -1.0039123636e-05 -5.0541986551e-06 1.527251858e-05 0.00013448604269 
3.5037456868e-05 -5.4592447831e-06 -0.00023677361071 -9.4844228238e-05 -4.5190967421e-05 -0.00011631133252 -2.0188594218e-05 6.3941643664e-05 -3.8964372766e-05 
5.3169230783e-05 -1.6544077681e-05 -2.2312942052e-06 -6.2512827396e-05 -0.00018883870295 -1.1979664835e-06 -0.00017268882546 -6.129005759e-05 7.6671180883e-05 
-8.1843549258e-05 3.5863000522e-06 1.0217010443e-06 -5.7328830391e-05 -9.4010091883e-06 5.2271839165e-05 -9.4660269485e-06 3.0333027174e-06 5.4979280983e-05 
-0.00010334628387 -8.1897221307e-07 4.857234214e-05 -0.00026723035071 -4.9825698403e-05 2.5777539396e-06 -4.7108564916e-05 -3.5885288381e-05 2.9429369246e-05 
9.1138150698e-05 2.8485883685e-05 0.00010089611399 -8.509832112e-05 2.8496245277e-05 -6.4598314411e-05 -0.00013078228233 3.7340363908e-05 8.7794335341e-05 
-0.00016552320319 5.3479851558e-06 -9.5622275868e-06 -6.367102153e-05 4.0162328459e-07 3.7799637022e-05 -0.00017306047696 -7.787767316e-05 0.000113994288 
9.1480999589e-05 -6.4384953068e-05 3.9512189314e-05 -0.00019516068365 -0.00018724155221 0.00020603643193 -2.0191171047e-05 -0.00033866243605 -9.4473577834e-05 
-0.00023753233638 -2.1626288596e-05 -1.4627253784e-05 0.00010004963172 -5.4306921324e-05 -5.4215552575e-05 -0.00032885748596 -1.554182975e-06 0.00017629990887 
-0.00030029304278 3.8261823063e-05 0.00010642107906 -2.6294410815e-05 2.8046421183e-05 -7.3252114009e-05 -4.6150562837e-05 -6.8464870382e-05 -8.4715969637e-05 
-0.00014849236121 9.2611955032e-07 6.9767218644e-05 -5.0039732966e-05 -0.00016551607108 4.194440122e-05 -0.00016104680935 9.247219468e-05 -8.6185392883e-06 
-0.000233314524 4.2714178446e-05 0.00019483587498 -9.4976710614e-06 3.3526792694e-05 -2.9120781011e-05 -4.7694549271e-05 9.137961887e-06 1.8865502598e-06 
-0.00019904546014 -0.0002398089907 -5.2213790753e-05 -0.00013533936795 -7.6284635148e-05 1.2689203753e-05 -1.5370981907e-05 -0.00018866641005 -1.3496411085e-05 
-8.3845215686e-05 -1.4293911869e-06 2.7466157612e-05 -0.00014925767891 -5.9217672008e-05 -4.6927693717e-06 0.00080355098812 -0.00024444417345 -8.0353130989e-05 
0.00012287927155 -0.00017352559473 -0.00033077976493 -0.00023078984947 -0.00025915718921 -0.00031059875319 -0.00011880108747 1.6067667367e-05 -3.3608105902e-05 
0.0003070713864 -0.00023592848716 -0.00098085847953 -0.00011126941303 1.8831012352e-12 4.9845776736e-05 2.3891144867e-05 -6.3297841412e-05 -0.00023697877661 
-8.8391853313e-05 0.00010723814761 0.00016531575844 -0.0002891482548 -0.00013985848744 8.5682813823e-05 -2.9199092756e-05 -1.7291906731e-05 -0.00010564904992 
-0.00010300882156 -7.3454173615e-05 0.00019590375684 -0.00018205343898 -0.00018915077864 -1.3639521699e-05 -6.5441417822e-05 -4.4564909692e-05 -5.3769825574e-06 
0.0001223876271 3.6677474591e-05 -5.6833804834e-05 -2.2888132897e-05 9.3488368755e-05 -6.6279389946e-05 -9.0059166013e-05 3.2547697205e-05 -3.9935987902e-05 