# vtk DataFile Version 4.1
vtk output
ASCII
DATASET UNSTRUCTURED_GRID
POINTS 1274 float
0.27371 -1.29442 -0.0530452 0.274018 -1.30223 0.0958328 0.279935 -1.29492 0.316533 
0.157866 -1.31629 -0.210625 0.298552 -1.29132 0.178097 0.412404 -1.23494 -0.0672473 
0.381957 -1.29107 0.321964 0.471203 -1.23563 0.493635 0.512332 -1.24394 -0.00713003 
0.637264 -1.25314 -0.00521814 0.539174 -1.3468 0.187765 0.641983 -1.22227 0.4336 
0.852545 -1.27218 -0.151256 0.843655 -1.2545 -0.0828049 0.657236 -1.29523 0.158391 
0.755529 -1.27583 0.265703 0.695878 -1.26954 0.219122 0.795704 -1.20722 -0.0435325 
0.63719 -1.20565 -0.0550539 0.672378 -1.34644 0.00775949 0.714374 -1.19034 -0.0826908 
0.690794 -1.30805 0.278241 0.451189 -1.22292 0.310601 0.615501 -1.27191 0.224439 
0.913079 -1.23666 -0.0773598 0.327923 -1.2342 0.17299 0.657555 -1.20731 0.362875 
0.814015 -1.19481 -0.112453 0.921765 -1.31376 -0.000681267 0.824033 -1.22898 0.0381517 
0.972256 -1.20808 -0.0155789 0.656582 -1.22841 0.0475409 0.559897 -1.21746 0.37965 
1.08061 -1.22072 -0.280377 1.03339 -1.2414 -0.141658 0.524927 -1.20994 0.283346 
0.790403 -1.27843 -0.0121435 0.634772 -1.27407 0.285684 0.405305 -1.25013 0.137691 
0.923873 -1.19598 0.0444471 0.852002 -1.22537 -0.20858 0.798366 -1.23297 0.160145 
0.838709 -1.21191 0.10909 0.748139 -1.21987 0.217138 0.904045 -1.24336 -0.00647987 
0.972817 -1.23572 -0.237604 0.891871 -1.25215 0.291493 0.887944 -1.21809 0.229854 
0.453075 -1.29884 -0.306192 0.167911 -1.33249 0.280813 0.145174 -1.35872 -0.0654699 
0.0370366 -1.33421 0.173479 0.286699 -1.34241 0.471781 0.256 -1.33823 0.384937 
0.239883 -1.31309 0.164786 0.379861 -1.35335 0.285234 0.151014 -1.34827 -0.274956 
0.359409 -1.41001 0.0556098 0.61188 -1.28911 -0.213337 0.217825 -1.35342 -0.222373 
0.399509 -1.34724 -0.15126 0.371876 -1.35498 0.404445 0.400015 -1.293 0.394703 
0.278254 -1.34828 0.208882 0.21363 -1.33791 0.00526843 0.484085 -1.26319 -0.187275 
0.413662 -1.36084 -0.0237848 0.583588 -1.34513 0.299825 0.433166 -1.28258 -0.142651 
0.304328 -1.28406 0.243063 0.552683 -1.36037 -0.0198839 0.376642 -1.27327 0.195242 
0.331266 -1.29825 0.0619232 0.330928 -1.26212 0.445563 0.509039 -1.22753 -0.0829679 
0.623893 -1.4128 0.0999952 0.531022 -1.24761 -0.240404 0.221496 -1.28142 -0.194455 
0.569026 -1.35619 0.0409461 0.540984 -1.30143 -0.0341802 0.328572 -1.2612 0.298706 
0.452049 -1.28809 0.450495 0.579939 -1.33503 0.469875 0.446852 -1.2801 0.263079 
0.510646 -1.29858 0.291714 0.452107 -1.36106 0.112234 0.6147 -1.30319 -0.0470285 
0.642903 -1.22655 -0.214142 0.972602 -1.28491 -0.284968 0.570019 -1.28596 0.172422 
0.475695 -1.28624 -0.249876 0.764687 -1.28923 0.343691 0.645788 -1.32715 0.220575 
0.577512 -1.23741 -0.0529083 0.999466 -1.26667 -0.0445632 0.741819 -1.25318 -0.0595361 
0.684764 -1.29065 0.0496769 0.875964 -1.3491 0.16142 0.602985 -1.25498 0.0809512 
0.780212 -1.23212 0.387776 0.791286 -1.24183 0.464615 0.545355 -1.26318 0.233257 
0.826059 -1.3594 0.207753 0.621947 -1.22443 -0.14277 0.687781 -1.23158 -0.0326695 
0.552645 -1.24003 0.124292 0.732406 -1.23694 0.0215114 0.808317 -1.30032 0.178187 
0.829054 -1.24994 0.340583 0.681136 -1.26703 0.329821 0.809073 -1.22667 0.532537 
0.908263 -1.24251 -0.376454 0.76977 -1.30937 0.0490187 0.437704 -1.25594 0.192478 
0.736221 -1.20242 0.479675 1.16459 -1.22032 0.0121832 0.629018 -1.26705 0.530692 
0.734169 -1.22574 0.317459 0.705524 -1.24442 0.414213 0.57938 -1.24281 0.0162325 
0.958163 -1.29198 0.219741 1.10748 -1.23864 -0.172399 0.839159 -1.30514 0.0442441 
0.977287 -1.22546 -0.0922028 0.908608 -1.28978 0.0614158 0.615551 -1.23576 0.148386 
1.29782 -1.19408 0.522622 0.738659 -1.25536 0.162151 0.941133 -1.22479 0.192916 
0.952897 -1.20811 0.422997 1.21191 -1.26317 -0.182473 0.905214 -1.2323 0.0978018 
1.04567 -1.2253 -0.00765089 0.863937 -1.23326 0.171979 1.1064 -1.25763 -0.0300916 
0.963535 -1.26242 0.0316414 0.0867324 -1.41341 -0.246529 0.285881 -1.36074 -0.213015 
0.429974 -1.40919 -0.397639 0.0351687 -1.35961 0.315158 0.213268 -1.32108 0.482517 
0.0967392 -1.40799 0.156773 0.21508 -1.34272 -0.402017 0.500825 -1.31867 -0.348155 
0.0871107 -1.35984 -0.381451 0.493862 -1.34764 0.459932 0.251054 -1.27893 0.529061 
0.147028 -1.35435 0.379342 0.241158 -1.41179 0.297659 0.0967349 -1.35814 -0.0124363 
0.276928 -1.31986 -0.156736 0.0801199 -1.35884 -0.288912 0.472771 -1.35387 0.309883 
0.348714 -1.40768 -0.0293158 0.129649 -1.34354 0.230646 0.213376 -1.33453 0.0982414 
0.219729 -1.2956 0.291389 0.321478 -1.29147 -0.295072 0.270994 -1.34801 0.0403835 
0.422632 -1.31843 0.166494 0.0836681 -1.29221 0.213934 0.515588 -1.30018 0.419641 
0.893477 -1.3001 0.53305 0.546732 -1.35537 0.420461 0.240985 -1.29484 0.228642 
0.318287 -1.3552 0.156952 0.318879 -1.35429 0.092592 0.368299 -1.28818 -0.232681 
0.519599 -1.33099 -0.241701 0.492635 -1.29272 0.203973 0.562992 -1.22354 0.519161 
0.64481 -1.28752 0.408327 0.777248 -1.34103 0.461466 0.424326 -1.34434 0.229324 
0.677056 -1.41468 0.136482 0.595458 -1.22168 -0.399396 0.601454 -1.35847 0.188544 
0.850922 -1.22549 -0.318269 0.391865 -1.29518 -0.298841 0.828541 -1.29948 0.283843 
0.759136 -1.28947 0.419642 0.332251 -1.28396 -0.173381 0.571196 -1.27625 0.289159 
0.669753 -1.27126 -0.166578 0.489578 -1.24918 0.145612 0.878981 -1.29203 0.213874 
0.970522 -1.38764 0.0885336 0.535799 -1.28036 0.0564409 0.994631 -1.25472 0.44412 
0.648796 -1.33022 0.340976 0.94194 -1.29605 -0.0636938 0.676972 -1.20651 -0.266848 
0.726202 -1.22872 -0.145336 0.791438 -1.30416 -0.0803676 0.820729 -1.34977 -0.0447907 
0.739533 -1.31715 0.179507 0.703525 -1.3543 0.139306 0.859996 -1.2992 -0.026227 
1.00866 -1.24924 0.086942 1.06202 -1.27463 0.0388754 0.912658 -1.25076 -0.141114 
0.78676 -1.28866 0.115159 1.10886 -1.2834 0.396074 1.00432 -1.24691 0.188757 
0.818278 -1.24307 0.229136 0.699705 -1.25908 0.111249 0.931969 -1.36104 0.21715 
0.857115 -1.28506 0.119106 1.19595 -1.36064 0.116969 0.947114 -1.35407 0.143435 
1.1238 -1.25863 -0.0976236 1.02668 -1.26073 0.275274 0.763657 -1.2241 0.0951124 
0.993316 -1.35304 0.196892 0.297622 -1.4153 -0.358781 0.199541 -1.37221 -0.327208 
0.032203 -1.4135 -0.0344594 0.441465 -1.28067 0.531353 0.0339859 -1.41171 0.191243 
0.0878758 -1.32394 -0.106993 0.342908 -1.30468 -0.39444 0.0369042 -1.36222 0.0211437 
0.0504332 -1.34249 0.474191 0.346653 -1.40639 0.198474 0.151963 -1.41314 0.444422 
0.324039 -1.34686 0.532516 0.0882085 -1.39529 0.227171 0.326767 -1.35876 -0.265196 
0.218149 -1.35052 -0.129307 0.248866 -1.41429 -0.201455 0.125222 -1.33771 0.152864 
0.312037 -1.2914 0.502146 0.0915877 -1.33751 -0.21967 1.00593 -1.41418 0.472845 
0.234309 -1.40735 0.202636 0.218151 -1.34137 -0.0605215 0.403493 -1.35851 -0.282296 
0.151087 -1.32345 -0.00109587 0.582399 -1.41374 0.21514 0.469221 -1.4131 0.1446 
0.453011 -1.28901 0.340958 0.274287 -1.35682 0.322687 0.194681 -1.36251 0.157728 
0.311866 -1.34571 0.27029 0.801071 -1.4127 -0.22736 0.190397 -1.3879 0.264676 
0.356269 -1.34225 -0.0620285 0.161595 -1.30562 -0.120869 0.394469 -1.41526 -0.141644 
0.293065 -1.35414 -0.0873675 0.465857 -1.33966 0.396209 0.4796 -1.25471 0.394823 
0.298031 -1.35986 -0.0221786 0.358927 -1.34948 0.0161678 0.800553 -1.29706 -0.211822 
0.379109 -1.36168 0.155182 0.336218 -1.34529 -0.179489 0.353228 -1.29995 0.132504 
0.378016 -1.29369 0.256033 0.347712 -1.33267 0.21151 0.526434 -1.23521 0.436449 
0.447713 -1.29507 0.109194 0.734803 -1.25825 -0.210905 1.05811 -1.36691 -0.147937 
0.310677 -1.30426 0.00396614 0.444336 -1.30495 -0.0196828 0.835246 -1.41477 -0.140176 
0.613434 -1.36212 -0.0111877 0.65018 -1.36306 0.275004 0.502055 -1.35052 0.244399 
0.526132 -1.25993 0.341861 1.1479 -1.36803 0.380406 0.628147 -1.3681 -0.0731399 
1.12168 -1.28132 -0.220504 0.725403 -1.2956 -0.11472 0.854303 -1.32445 -0.108024 
0.68703 -1.36354 -0.0515168 0.74707 -1.34133 -0.00649291 0.898169 -1.35461 -0.0557056 
1.04958 -1.23541 0.467705 0.636124 -1.31503 0.0928212 0.841294 -1.41501 0.254184 
0.654328 -1.2561 -0.09281 0.89557 -1.35371 0.0893008 1.09837 -1.31864 -0.000539284 
1.01076 -1.31083 0.00857715 0.813048 -1.37034 0.046584 0.753665 -1.3395 0.101677 
0.696228 -1.29716 -0.0336282 1.0507 -1.34991 0.155211 0.854874 -1.41217 0.0909476 
1.16771 -1.22871 0.402626 0.994391 -1.28933 -0.106979 1.09793 -1.40835 0.17322 
0.963614 -1.37546 -0.036824 0.971621 -1.31644 0.0850383 0.875757 -1.20445 0.467548 
0.03417 -1.37749 -0.227464 0.0314945 -1.41421 -0.173085 0.0354911 -1.41012 0.467957 
0.0725117 -1.41424 0.307415 0.0840877 -1.37164 0.528369 0.0999289 -1.41553 0.479375 
0.0769065 -1.41064 -0.339094 0.166934 -1.39488 -0.394951 0.384382 -1.36049 -0.403686 
0.0336251 -1.41208 -0.285774 0.051559 -1.41294 0.0665933 0.265073 -1.4091 0.470988 
0.0355718 -1.41055 0.363623 0.240016 -1.4087 0.370299 0.143044 -1.41182 0.529721 
0.301946 -1.35416 -0.332213 0.142843 -1.41429 -0.331475 0.145821 -1.41471 -0.269143 
0.64051 -1.41013 -0.32036 0.42433 -1.41293 -0.237098 0.116076 -1.41367 0.0607328 
0.0974693 -1.344 0.422142 0.392184 -1.33179 0.529311 0.109642 -1.35193 0.315351 
0.501033 -1.4062 0.400899 0.175112 -1.37133 0.0536651 0.3102 -1.40789 -0.168339 
0.292562 -1.41419 0.089729 0.209923 -1.40901 -0.0931128 0.355586 -1.34875 0.469381 
0.316862 -1.32239 0.415543 0.291685 -1.40986 0.249609 0.715669 -1.34971 0.518498 
0.207525 -1.35188 0.331793 0.411599 -1.34999 0.34963 0.453503 -1.3485 -0.224215 
0.383407 -1.35574 -0.218988 0.0656037 -1.35878 0.109136 0.455429 -1.40706 -0.173089 
0.243463 -1.35264 0.267308 0.263845 -1.35817 0.128545 0.420929 -1.35365 0.450415 
0.336571 -1.32077 -0.122254 0.457475 -1.41043 0.0497347 0.630155 -1.2794 -0.370667 
0.524842 -1.29231 -0.290733 0.569939 -1.41475 0.0648698 0.520039 -1.28589 0.488888 
0.648241 -1.41098 0.2253 0.550757 -1.35215 -0.295418 0.456679 -1.41397 0.209214 
0.680721 -1.36136 0.394684 1.07312 -1.29101 -0.270052 0.463863 -1.28437 -0.0796406 
0.428173 -1.34144 -0.0860728 0.501958 -1.32647 0.0150992 0.438317 -1.34184 0.037893 
0.529727 -1.33062 0.35556 0.571087 -1.28934 0.535691 0.942876 -1.25446 0.531368 
[...]
POINT_DATA 1274
FIELD FieldData 10
VELOCITY 3 1274 double
-0.0059677100006 -0.0045009330296 0.0031325715725 -0.00063644643373 -2.1924489649e-05 6.1370092912e-06 -0.0083644001764 0.0026857687382 0.020021647443 
-4.6763386853e-05 0.00015362202773 2.7746772768e-05 -0.00040831694628 1.2935742332e-05 0.00039948828829 -0.0028606979731 0.0018768321661 0.00086713144766 
-0.0028437388071 -0.0011020357907 0.00025893238003 -0.0050704877006 0.0018888525615 -0.00058108802678 -0.00089411308403 -0.00025675199663 -1.8386577458e-06 
-0.00061124705827 -7.2092794615e-05 -0.0012774579851 -0.0011941600789 0.00031301297495 -0.00020924750488 -0.0039249609332 -0.0019342348645 0.0049342671187 
0.00032997490286 -0.00028992454195 -0.00045520276564 0.00092953522541 -0.00046823024284 -0.00023999271345 0.00067478244395 -0.0010149672291 -0.00075655806103 
-0.0001932068814 7.0987606035e-05 -0.00040758908454 -0.00025305770533 -0.00051664169194 -0.00051189489075 -0.0053028753421 -0.0025206132648 -0.0054226656866 
-0.0014698334057 -0.0022579279748 -0.00062635783846 -0.00026824509223 4.8152416822e-05 0.00023558145374 0.0038379217418 -0.0004395345386 0.0012708682633 
-0.0002714264807 -0.00022092100128 -0.0005274629555 -0.088913257385 0.0014258517095 0.0083674489621 0.00021497387175 -0.00061910708285 0.0028358844584 
2.4780256528e-05 0.0026171388073 0.0014116840676 0.04946172979 -0.019332297204 0.070919485662 0.0018236879689 -0.0038191734613 0.0061141217814 
0.070583560914 -0.043563646581 0.0073091353338 -0.00088023805361 -0.00028137516489 0.00021420241524 -0.0015772593238 -0.00016495639087 -0.0013543410249 
-0.0046205200909 -0.00033336807375 -0.024666537739 0.0014856314021 0.0012460536327 -0.002596544802 -0.0063446877474 -0.0035949766566 -0.0020403029073 
0.0033136834684 -0.0022499071398 -0.011364331277 -0.00060189044296 -0.0011416073589 -0.00011604048542 -0.091158838416 -0.026059319369 -0.010783539075 
-0.00092527162466 -0.00091036719738 -0.00099776339748 0.00019390829971 0.0012747127248 -0.00055116050737 -0.0023170328561 -0.0011577249106 0.001973841907 
0.11277608849 -0.051323936249 0.0045265137617 -0.00036107507181 -0.0028728731602 -0.00058530154687 0.00024926081135 -0.0007248190117 -0.0013333864355 
3.4364027319e-06 -0.00083217386654 -0.0015590111566 0.0019424897485 -0.00038231557021 -0.0017417556785 -0.0010573743906 -0.00018301330512 0.0011253377979 
0.096768987871 -0.0039579581682 0.0041144482536 0.0001019860024 -0.00056519083612 -0.00099386378988 -0.0013256937796 0.001157741234 -1.9774557382e-05 
-0.0014558200413 -0.0012993317371 -0.0025570032108 2.7168864077e-05 -3.2936835654e-05 -2.7617928096e-05 0.002582115329 -0.0014604143676 0.001870488531 
-3.141214143e-05 -5.8863041157e-05 4.5422585432e-05 -0.00029183838095 -8.7138220963e-06 -0.00011624851378 -0.00011363059028 5.7856508257e-05 0.00013086830107 
8.5573350277e-05 9.6883280389e-05 -0.0020680054933 -9.8612414758e-05 0.00011110938467 -0.00018063703625 6.0686382585e-05 -1.5348313023e-05 -9.7771535645e-05 
-0.00045771609131 2.5401205733e-05 -4.7099390024e-05 0.0006113037156 -0.00091690708942 0.0018193645819 -2.0214781135e-05 -3.242739325e-05 0.00034616934128 
-0.00017759807525 -8.0949668628e-05 0.00017246900283 -0.00025695126139 -0.00027948818047 0.0002969421494 -0.0010675040402 2.0381824488e-05 8.7956472599e-06 
-5.5828322485e-05 -0.00014652862084 0.00014750730005 -0.0018738311658 -0.0010377116581 0.0031294175183 0.0010760126054 -0.0093044061422 -0.0022471246782 
-0.00061627305004 4.0079424133e-05 0.00010696779088 0.00025666919529 6.4127353276e-05 -1.8746331186e-05 0.00069346090138 -0.00065892977404 0.001046893096 
-0.00019608413276 0.00017166983694 0.00039760025164 0.00061293366547 0.00048982049969 0.0015472071624 -9.1648831562e-05 -0.0083508684956 -0.029638774827 
-0.00022069819245 0.00025154106924 0.00040730312528 -0.00024915499886 0.00013470727667 0.00011536999187 -0.0017955142017 0.00074551397078 0.0013807928149 
0.00060021168617 -1.7640783322e-12 9.8504251365e-06 0.0055976552752 -0.0064658606093 0.0060285141668 -0.094958318168 -0.036765074566 0.10766374491 
-6.1230315367e-05 0.00057206029646 0.0017712430989 0.00025978646166 0.00011260896466 0.00041783168622 -0.0082640498076 -0.001789730319 0.011812158663 
-0.00068987134719 -0.00027108451215 -0.00026472340459 -0.00041722936398 0.00061204717743 -0.00019672761212 -0.00063238526863 0.00050032805997 0.001393082498 
-0.0004277114642 0.00041618330541 0.0010327685407 -0.00032219456544 -2.7475183047e-05 -0.00012226737651 0.0014269045469 -0.00096117842376 -0.0010468270064 
0.0045207690824 -0.0028443605103 0.00084662952174 0.00037271093348 -0.0001776248509 0.00055481510216 0.0027763284579 -7.5033572733e-05 -0.00023232883532 
0.0055888357647 -0.0038645022451 -0.0048312361511 -9.1733532146e-05 -0.0001477743891 8.4123490977e-05 -0.00079309111601 -0.00090200033672 -0.00044959035724 
-0.0012878635004 -0.0025776259574 -0.0010870631271 0.0032795546168 -0.0057786856226 -0.0061127810591 0.00085959496136 -0.0040725986442 -0.0045326506527 
-0.00025761834742 0.00047468739951 -0.00061669263249 0.00068986469872 0.00023359784528 6.2162913221e-06 0.001030776833 0.00039762982512 -0.0039013020185 
0.0024768730568 -0.0016622081637 0.0010836592074 0.0009114225845 -0.00088019806547 0.00044103636491 0.00030572667784 0.00015135773828 -0.001379112319 
0.00015487791824 -0.00030207783966 -0.0006678115283 0.0025048226912 -0.002576472381 -0.0031995513085 -0.00038021952393 -0.00099470140189 -0.0014710860891 
0.00071623141864 -0.0035995493631 -0.0028562132448 -0.00039900549093 9.5986669774e-05 -0.0014011842411 5.9613079027e-05 -0.00082013746338 -0.0014087924178 
0.00093701938865 -0.000192892423 -0.0010226378849 0.00032995191021 -0.00050240412484 -0.0005405466242 0.0024207787568 -0.00063632174457 -1.5040617169e-05 
-0.055926750587 0.035252528643 -0.093298499871 -0.00027939829275 0.00012816288047 -0.00022302740614 -0.0012857357633 0.0010013179052 0.0016562446374 
0.012148781257 -0.01417352952 0.076182397054 0.00069173922598 -0.00026219717425 -0.00080050265908 -0.0042299006619 -0.0023232159865 -0.0010588482125 
5.9353980501e-05 -0.00024928766612 -0.00022753583505 -0.0041661279507 -0.0066246121082 0.012591351269 -0.00061040069326 -0.00046197633181 -0.00095652635443 
0.0031989326507 -0.0027905311951 -0.00092914399485 -0.0080938940762 0.0011747379776 0.025510632222 -0.00022363930207 0.0001317572125 -0.00031709758795 
0.00018235597512 -0.0018431330472 -0.0014695737512 -0.00014696610975 -0.00015137732617 7.822755194e-05 0.0016139715576 -0.00091285406942 -0.0035973650588 
0.12238572648 0.02008267195 0.18039812334 3.6464472043e-05 -0.00075453827423 -0.0011770725651 0.0016726318904 -0.00085298466313 0.0044757631849 
-0.0011657176505 -0.00040945225903 0.0007998716729 -0.013789459371 -0.0022430043928 0.014483033558 0.0012251792127 -0.00037720652502 0.00016315161674 
-0.013406870797 -0.0095230804497 -0.0045242903687 1.8376069851e-05 -0.00066475433028 -0.00015625639317 -0.036791507427 -0.0013360563902 -0.010369940474 
-8.2578389943e-05 -0.0016693754194 -0.0010086860544 -8.976559818e-05 3.435825248e-05 -0.00018434624857 3.0728645034e-05 8.5127864156e-05 -0.00025028698309 
0.00014230418868 3.8659754727e-06 -5.0739991674e-05 -9.6083486939e-06 8.3177519516e-05 0.00010361486488 -0.00011746990785 -1.4787698014e-05 8.5136048148e-05 
-3.4459457856e-05 -2.2959227928e-06 -0.00016437579404 0.00036756968081 -0.00035031352329 -7.3289661112e-06 0.001237261699 -3.6806097561e-05 -2.8754265322e-05 
-7.8413106656e-05 9.5604847948e-06 1.4513493499e-05 -0.00072565881162 -0.00011256262075 -0.00022965244746 -1.6907652495e-05 -2.6870991421e-05 7.8503866854e-06 
9.7428071654e-05 -1.2754414488e-06 9.8385597647e-05 -8.6223849066e-05 -4.2376035326e-05 2.9748564506e-05 -0.00052610861172 -0.00031649506139 -0.0010284308168 
-0.00040928341677 -0.0035600018672 0.0025419767168 -1.9987699419e-05 9.5789682915e-06 2.3173778953e-06 -0.00061936727756 8.5220595e-05 -0.00023095353283 
-0.00013325805824 0.00013282031191 0.00012107927339 -3.4529062759e-05 3.2341791448e-05 -2.5534622601e-06 -0.0001937978492 -1.6934426905e-05 -8.6267192014e-05 
-5.7967533545e-05 -9.6430115091e-05 0.00019454199691 -0.001023017912 0.00014737394934 0.00012901997028 1.9380747846e-05 -1.5067300701e-05 -4.6273586853e-05 
-0.00084417202998 0.00055987778 0.0012526684165 -0.012200503305 -0.0046787569347 0.018933047414 -3.9897273262e-05 -0.00058243618748 -0.00043144371939 
-0.0010111097822 -0.00081913690356 -9.0248195154e-05 0.00031346458146 -5.2591146668e-05 -0.00042131463251 -5.8441097609e-05 -0.00017065198498 0.00021734025402 
-0.00015354105254 3.1766679169e-05 0.00011227858716 -0.00031868931353 9.8109824911e-05 0.00019364703808 -0.0014755777147 -0.00030069285992 0.00050016376834 
0.0027586347591 -0.005381119691 0.003436937482 -0.0014488417946 0.00032480214978 0.0007480626125 -0.0097987451989 0.0026107972092 0.003241308266 
-0.00053820520884 0.00040389110613 -0.00038521803123 -0.0006179736278 0.00045421342084 0.00031075893365 0.00036126215892 0.00025964924864 0.001092726236 
-0.00026520859757 6.6693731678e-05 0.00011815057294 0.00040254271907 9.7372953131e-05 3.0928659846e-06 -0.0013202845223 -4.9003108792e-05 -0.00045641733095 
0.1102158518 -0.05211260815 0.080886399231 -0.0010064418209 -5.417845622e-05 0.00068239857653 -5.1931384887e-05 -0.00024615754026 -0.0007844973835 
0.00049571747881 -0.0011272236508 0.00090604797879 0.10494447203 -0.13260931 0.074600528258 -0.00014381688154 -8.5957420002e-05 -0.00093788809436 
0.0026281600935 -0.0043512128554 0.0005072894856 0.00099113001118 -0.002054443473 -0.001239343027 0.0030304424688 -2.0804118036e-05 0.00018596701185 
-0.00013905813231 -0.00017070676606 0.00024500522258 -0.00023768710348 0.00010110522461 -3.7620153975e-06 -0.0012303873655 0.00021197690654 0.00014851387297 
0.00015280052189 -0.00010636435533 0.00035755948897 -0.0025031270471 0.001231637015 7.8632686247e-05 -0.0098706459544 -0.0041037668487 -0.02827980119 
-0.00018055043596 -0.0006547525877 0.00050058069095 0.00056610186736 -0.00011073337651 -0.00035939682687 0.00034531251859 -0.00031186062353 -0.00075550886381 
8.2043798236e-06 -0.0010622650147 -0.001963091313 -0.00065356100283 -0.0010206025099 -0.0015448038323 -0.00047757716171 0.00017301773238 -0.00027896065488 
-0.0006150893773 -0.00022427515107 -0.0007490964471 -0.00057479867041 -0.0025153415079 -0.001710110507 -0.00030039640272 0.00041785905693 0.0018133689148 
0.0012199293554 6.2194660513e-06 -0.0015167672642 0.00060044270058 -0.0040877832682 -0.0062211178951 -5.0913149581e-05 0.0024992041038 0.0018031314727 
0.0017724416469 -0.00092699853883 -0.0016486557444 -0.0009164026554 0.00079717127934 -0.0006586804072 -0.00085730232967 -0.00081314438473 -0.0011274027724 
0.0010356602196 -0.00043293243675 -0.00046854636117 -0.00014379913586 -0.0012740772613 0.00076611886429 0.00022531105218 0.00042973131327 0.00022656093076 
0.00027809636099 -0.0018717703723 -0.00074816246004 -0.00037164198008 -0.00045459400627 0.00054272190001 -0.00044455705511 -0.00038783460431 -0.0011293403004 
-0.00050751675599 -0.0024288745464 -0.00053005313081 0.00011477436137 -1.7520807117e-05 0.00012564357115 9.7729177742e-05 -8.9706578949e-05 -2.434656669e-05 
-9.3149753451e-05 0.00013802585728 1.4247836759e-05 -0.00048589478611 -1.9962374233e-05 0.00012817088191 1.0311388384e-05 0.00028594030379 -4.4373210656e-05 
-0.0014098549954 -0.00092689572517 0.0038971406266 -0.00031236710557 -0.00029064170181 -3.4632898975e-05 7.0773894749e-06 5.6229504586e-05 -3.8222867467e-05 
0.0060989989546 0.0030185855427 -0.002323401076 -0.0001435396439 -0.00010678583071 8.5235079051e-05 -2.984642614e-05 -0.00019789642975 0.00015131724124 
0.00010264152049 -8.5218755108e-05 -1.4090159436e-05 -3.3042290443e-05 6.1229001074e-05 0.00012407718125 -0.00016664878493 -3.1557565493e-06 -0.00021248038214 
-0.0020051850918 -0.00049674311576 0.002564656878 0.00062248255284 1.4937303714e-12 -0.0040186908736 -0.00021084540786 0.00020722434111 0.0024648591785 
-0.00014476415512 -0.00014571164592 -3.4022799044e-05 -2.7429377569e-05 0.00012249304165 -1.9151966241e-05 -0.0016091939339 -2.2154600544e-05 -0.00027639660141 
-0.00010560336581 -3.1980814175e-05 6.9007473618e-05 -0.010719088332 0.0010893685418 0.0023709529383 -5.6537449922e-05 -2.9184573712e-05 -4.0451544579e-05 
-0.0013282507116 -4.6550812001e-05 0.0014399721415 -0.00017898467462 -5.6963784889e-05 0.00047019388032 -0.0002443964804 0.00011429850928 -0.00011881454143 
-0.00061772008791 2.450738267e-05 3.9243349751e-05 -0.00043536387025 -1.9228765142e-05 9.8749687508e-05 -8.7124978635e-05 -3.0104400616e-06 -4.7214898875e-05 
-0.00024464432207 -4.5072794182e-06 0.00024105058987 0.0044073238326 3.0147443281e-05 0.0023234112765 -0.00018411695988 -0.00012606957412 4.3833524645e-05 
0.00099632208441 -0.00030728096975 -4.3653256615e-05 -0.0019629327768 -0.00014241370309 0.0018199170592 -4.3999089689e-05 -2.9756378932e-05 0.00022660404528 
0.0010389083412 -0.00036049085335 -0.0001429516262 -0.00041388874394 -0.00015058588348 -0.00030526262375 0.00011479750782 -0.00042517660114 7.4408817046e-05 
-6.975493083e-05 -4.1119967209e-05 -2.2058328768e-05 -0.00070823399412 7.5591055324e-05 -5.2678579003e-05 0.00093247179152 -0.0016626615084 -0.00033412569897 
-6.1412941331e-05 5.2190015679e-05 1.4344344577e-06 -1.9747383106e-05 -0.00012445914421 -0.0003059524278 -0.0035367734423 0.00064837720958 -0.0034480418472 
-0.00043929619504 0.00016243696155 5.5395654326e-05 -0.0004154391238 -4.9512491205e-05 0.00023474280069 -3.2547190442e-05 -0.0036579044024 0.0020164308547 
-0.0024566130938 -0.0001991942127 0.00023366577671 0.00067606036416 -0.0023495672692 0.0012809354919 -0.00012001865916 -0.00026899168535 0.00068022704722 
-0.0012498719603 -0.00022802195968 0.00083547219462 -0.0015551028338 0.00047057303071 0.00019902494803 0.0040599507264 -3.245587743e-05 -0.0019281513667 
0.00014903038806 -0.00025640501566 -0.00010824891616 0.00015215071862 2.5895783259e-05 -3.3085655639e-05 -0.00055979223316 1.5663657792e-05 -2.3510425388e-05 
-0.02468252468 0.00011883029515 0.010207261754 3.7111390154e-05 0.00059914557355 0.00010183480975 0.0005489657343 -0.00099830481857 -0.00152570919 
-0.078707122591 -0.12131579787 0.099522388608 -0.00039606721133 -0.0030778880695 -0.004889239684 -0.00041373058684 -0.00065356537493 -0.00064753002305 
-3.5114095525e-05 -0.00018546880528 0.00010246924077 -0.0011325131315 -0.00050161385383 0.00053498348554 -0.00095185898708 -7.3306530626e-05 -3.7933296787e-05 
-5.5039343896e-05 -0.0015347041176 -0.00029748198137 -0.00025117132141 0.00029875715906 -0.0006996781031 -7.7443957175e-05 2.0179212081e-05 -5.613361608e-05 
-0.00013529566456 -0.0017063315714 -0.00089841418864 -0.00016768380682 -0.00020063968877 -0.00012763159949 0.0013067200596 -0.0015481216738 -0.00075408343134 
-0.00061266907714 -0.00099374703409 -0.0031520200205 0.00028392326664 -0.00015169766503 8.8762640601e-05 0.00033936715499 0.00018431463282 1.5448292058e-05 
-0.00053944219209 -0.0012020328042 -0.0019460564394 -0.00067393147545 0.00077565418451 -0.0005623249047 1.7652883644e-05 6.5839891201e-05 7.1274242086e-05 
0.040589380139 -0.0049686832537 0.018050988388 0.00059599771862 -0.0028372529249 0.0034918266159 -0.0020589821879 -0.00014680018949 -0.00019930601617 
-0.00076955375162 -0.00010076153191 -0.00014918785033 -0.00011004563737 -0.00029030941219 -0.0003838125722 -0.015646157659 -0.018125874922 -0.0089136068155 
-1.2093846425e-05 0.00011073756286 -7.7695151916e-05 0.00016565794625 -0.00019983118178 -0.00019521094295 3.8327416961e-06 -0.00050904153315 -0.00026767268729 
-2.3126378599e-05 6.0793926991e-06 9.1138442196e-05 -0.00013821628666 0.0001338634416 2.1987063201e-05 -0.00013675577258 2.9940780658e-06 0.00019918396729 
9.0184327824e-05 -4.016473536e-06 -9.5592308349e-05 9.4090955726e-06 -2.0828269751e-05 5.0836150737e-06 0.00037451309477 0.00022812284963 4.7632899618e-05 
-1.6740205266e-05 -8.7937403167e-06 -1.9865605297e-05 -0.00013353824831 9.5084583729e-05 4.1896827523e-05 -0.00015961174248 -5.9656018777e-05 -4.674755813e-05 
0.00025749668328 2.2097805656e-07 -1.0680190821e-05 6.5731502029e-05 2.0177740555e-05 0.00018790350426 -0.0002129035762 1.4280417606e-06 -0.0013060614965 
-0.00061621351107 -6.3331288827e-05 0.00021373163176 -5.3079934481e-05 6.8812931705e-05 5.3979690147e-05 -1.4164354972e-06 -0.00018318362566 4.4249766907e-05 
5.7836196339e-05 -9.808411425e-05 0.00030908969932 -0.00011998383719 1.6261492484e-05 2.3904250922e-05 -5.9373061738e-05 -7.0072664626e-05 -0.000160490634 
-3.090699598e-05 3.9662190733e-05 -7.9076016178e-05 2.1250384272e-05 -0.00012260113697 -2.1887801114e-05 1.6511356759e-05 7.6445444567e-05 0.00013022819839 
0.00011845970268 -6.0958337979e-06 -0.0002370932502 -0.0001163546204 -5.2456730488e-05 -0.00017536683465 0.0001202042032 -1.3698049473e-05 -8.2829895051e-05 
-6.942915394e-05 -1.7806060841e-06 8.7530411458e-05 -6.8003406903e-05 -0.00028453988407 1.8229128608e-05 -0.00033679150582 -6.9271998571e-05 0.00019523469865 
-0.00017547944936 0.00017840413943 1.9555892802e-05 -0.00018534053298 4.0568228868e-05 -4.8681465411e-05 -0.0023366787114 -0.0010763368072 7.8075028766e-05 
-0.00030072367311 3.0948320252e-05 0.00029946663114 -0.00066619860398 -0.0001045739478 5.0528041233e-05 0.00036405002092 -0.00010870372197 -0.0002006519478 
0.00043704482627 9.0013975957e-05 0.00027332983973 -3.468179264e-05 1.7524638536e-05 -8.8982862704e-05 -6.5057662805e-05 1.4748114007e-05 0.00014193541814 
-0.00017994942544 -0.00017508293706 5.7384766573e-05 -0.00035921952216 8.2308620314e-05 0.00030379849833 -0.000391578453 -0.00018409221605 0.00010269640488 
0.0011389675925 -0.00049886494811 -0.00011042506821 -0.00011324917215 -0.00029990091332 0.00015126367172 -0.00089955697027 -0.0022463812892 -0.00316345338 
-0.0055322273638 -0.002526277341 0.0039253362238 7.817228237e-05 -0.00010342541467 1.4572630793e-05 -0.006774952013 -0.00020640958984 0.0043994560271 
-0.0004792925686 1.4783438166e-05 0.00025717388306 -8.9092079826e-05 0.00021074829887 -0.0003487445436 -0.00014458584507 -0.0002127312234 -2.0585096128e-06 
0.00069089194404 -0.00097303685696 -0.00056141294935 -0.00011493785918 -0.00040116622484 -0.0011552186308 -0.0031577424042 0.0017889955253 0.00013901732829 
-0.00046931275228 0.00012646838153 0.00018105424821 -0.00046965112043 0.00026722860572 -0.00013891780756 -0.0002830428933 -0.00010695571734 7.6461656147e-05 
-0.00027401202342 -0.00069837766623 -0.00039376804136 -0.006076535318 0.0024993443683 5.9128818817e-05 -0.00057492107321 -0.0012830759373 1.4596544482e-05 
-0.00067558393613 -3.3603769246e-05 0.00017309944372 -0.00047906855618 -0.00017040941717 -0.00020712104391 -0.00054339996487 -0.00016246385089 0.00044916536524 
0.00052199284984 -0.0017444133871 -0.0019945368976 -0.00074914077843 -0.0058684741852 -0.0026669214422 -0.00097005057421 -0.00021130798903 -4.7474318216e-05 
-0.00035072136387 0.00045586581101 0.0012022283946 -0.00018989174977 3.287279019e-12 0.00040423397872 -0.00020052033215 -8.8787553416e-05 -0.00055912941187 
-1.7115930391e-05 0.00036815670943 0.00032405861097 -0.00055428093809 -0.00040713117996 0.0001200839242 -0.00017358832334 -1.3820448231e-05 3.0151452503e-05 
0.00074164417432 0.0010048136432 -0.0024310782573 -0.19059721686 -0.11386466271 -2.0915178126e-06 0.00042270681967 -2.6879332207e-05 -0.00088427662178 
0.014895031577 0.0005848607403 -0.010356378461 -0.00021889355072 1.848783123e-05 -0.00040427325345 -0.0010698417545 0.0001426451525 -0.00042219299472 
-0.0010275300722 0.00019381314305 -0.00033036758859 0.023492910875 -4.5089090543e-12 -0.0034095707883 0.00024477468212 -0.00034849320188 0.00022419254556 
-0.00068596529068 0.00047836225732 0.00082361180641 0.0023895188329 0.00012849409267 2.6023682698e-05 -6.6624727169e-05 -0.00046678806975 -2.0423392298e-05 
0.00092633017114 -0.0022233899991 -0.0017170421887 0.00034298144844 0.0004625023649 0.0018982671958 3.4514225716e-05 -7.6872890012e-06 -0.00042145231104 