# vtk DataFile Version 4.1
vtk output
ASCII
DATASET UNSTRUCTURED_GRID
POINTS 1274 float
0.273687 -1.29447 -0.0533619 0.273582 -1.30218 0.0959165 0.27929 -1.29497 0.317625 
0.157808 -1.31606 -0.211022 0.298388 -1.29137 0.178187 0.41146 -1.23448 -0.0669155 
0.381249 -1.29112 0.322115 0.469853 -1.23548 0.492908 0.512114 -1.24362 -0.00819989 
0.637055 -1.25342 -0.00573351 0.538781 -1.34669 0.187557 0.641075 -1.22284 0.434189 
0.852383 -1.27266 -0.151186 0.843385 -1.25444 -0.0829436 0.657641 -1.29639 0.158102 
0.755459 -1.27582 0.265835 0.696178 -1.27022 0.218696 0.793613 -1.20803 -0.0449312 
0.637039 -1.20772 -0.0561951 0.672356 -1.34643 0.00781109 0.715471 -1.1908 -0.0822003 
0.690753 -1.3082 0.278135 0.39104 -1.23458 0.281928 0.615126 -1.27214 0.224819 
0.912733 -1.23671 -0.0763049 0.300983 -1.2505 0.128451 0.657492 -1.20798 0.363633 
0.813875 -1.19505 -0.1132 0.921164 -1.31397 -0.000241327 0.8226 -1.22939 0.0380058 
0.971569 -1.20862 -0.0148673 0.656926 -1.22804 0.0465111 0.55741 -1.21913 0.378501 
1.08242 -1.22301 -0.287917 1.03375 -1.24152 -0.141554 0.504042 -1.22149 0.280697 
0.789763 -1.27896 -0.012706 0.634866 -1.27401 0.285643 0.405166 -1.25081 0.137754 
0.95218 -1.20291 0.0596568 0.851298 -1.2271 -0.208412 0.79808 -1.23313 0.160127 
0.838045 -1.21215 0.10874 0.74843 -1.22105 0.215884 0.903232 -1.24345 -0.0050309 
0.985421 -1.23841 -0.236401 0.891718 -1.2525 0.291641 0.886339 -1.21797 0.230371 
0.451829 -1.29942 -0.306775 0.167776 -1.33263 0.280766 0.145328 -1.35896 -0.0654427 
0.0370367 -1.33505 0.173763 0.286224 -1.34237 0.471552 0.255773 -1.33813 0.385023 
0.239781 -1.31343 0.165074 0.379538 -1.35342 0.285064 0.15344 -1.34835 -0.272801 
0.359498 -1.41001 0.0556856 0.61169 -1.2894 -0.213165 0.217744 -1.35347 -0.221979 
0.399441 -1.34727 -0.151208 0.371485 -1.35529 0.40472 0.398948 -1.29307 0.394598 
0.278036 -1.34832 0.208965 0.213303 -1.33858 0.00559352 0.485017 -1.26632 -0.187318 
0.413063 -1.36079 -0.0237074 0.583364 -1.34513 0.299897 0.433093 -1.28261 -0.142614 
0.304031 -1.2841 0.243163 0.552632 -1.36021 -0.0192663 0.376546 -1.27372 0.194388 
0.331398 -1.29844 0.0617264 0.33038 -1.26186 0.44548 0.508661 -1.22756 -0.083511 
0.623448 -1.4128 0.0996722 0.54371 -1.2513 -0.240601 0.212487 -1.28193 -0.175281 
0.568461 -1.35594 0.0416929 0.541704 -1.30122 -0.0339681 0.327803 -1.26214 0.297887 
0.451138 -1.28852 0.450274 0.579723 -1.3351 0.469959 0.446519 -1.28101 0.264258 
0.51111 -1.29969 0.290909 0.451845 -1.36116 0.112092 0.615944 -1.30382 -0.0478796 
0.643966 -1.22748 -0.213992 0.972748 -1.28526 -0.284439 0.570451 -1.28651 0.172192 
0.474721 -1.28626 -0.250697 0.764531 -1.28926 0.3439 0.645434 -1.32735 0.220651 
0.57712 -1.23901 -0.0539844 0.999425 -1.2667 -0.0442677 0.741669 -1.25492 -0.0612184 
0.684787 -1.2904 0.0493955 0.87665 -1.34922 0.16217 0.6032 -1.25475 0.0796128 
0.78021 -1.23222 0.388013 0.790543 -1.24153 0.46477 0.545556 -1.26313 0.232704 
0.825956 -1.35955 0.207635 0.621949 -1.22536 -0.144864 0.687869 -1.23271 -0.0332984 
0.553112 -1.241 0.123642 0.732384 -1.23673 0.0210894 0.808427 -1.30049 0.177897 
0.82887 -1.25063 0.340852 0.681263 -1.26714 0.32972 0.809152 -1.22666 0.532537 
0.91268 -1.2475 -0.369554 0.769502 -1.31014 0.049031 0.437554 -1.25608 0.192602 
0.723888 -1.22675 0.535002 1.16361 -1.22128 0.0116286 0.628889 -1.26642 0.53006 
0.73423 -1.22569 0.317609 0.704862 -1.24503 0.415679 0.578895 -1.24362 0.0152165 
0.958781 -1.29305 0.219238 1.10581 -1.23868 -0.167266 0.838847 -1.30532 0.0441567 
0.976783 -1.22615 -0.0922595 0.908143 -1.28984 0.0618259 0.616189 -1.23689 0.147344 
1.32157 -1.19725 0.526026 0.738725 -1.2565 0.160915 0.939907 -1.22549 0.194146 
0.952003 -1.20848 0.423053 1.21207 -1.2637 -0.182979 0.905014 -1.23199 0.0976545 
1.0449 -1.22605 -0.00808472 0.863901 -1.23349 0.171959 1.1003 -1.25841 -0.0325062 
0.963294 -1.26316 0.0318426 0.0866517 -1.41341 -0.246688 0.285885 -1.36066 -0.213155 
0.430078 -1.40919 -0.397639 0.0351688 -1.35953 0.315631 0.213211 -1.32121 0.482541 
0.0966039 -1.40799 0.156585 0.216666 -1.34411 -0.402017 0.50028 -1.31852 -0.348268 
0.0870797 -1.35982 -0.381537 0.493619 -1.3476 0.459635 0.25099 -1.27903 0.529061 
0.147238 -1.35436 0.379516 0.240999 -1.41179 0.297795 0.0966024 -1.35824 -0.0126745 
0.276936 -1.32019 -0.156468 0.080076 -1.3588 -0.289022 0.471985 -1.35384 0.309841 
0.34857 -1.40768 -0.029216 0.129575 -1.34342 0.230494 0.213154 -1.33468 0.0980618 
0.219503 -1.29567 0.291499 0.320389 -1.29145 -0.294905 0.270915 -1.34801 0.0404888 
0.422379 -1.31826 0.166054 0.0824301 -1.29269 0.215243 0.515791 -1.3007 0.41895 
0.893103 -1.30022 0.533049 0.547065 -1.3558 0.420327 0.240698 -1.29493 0.228731 
0.318089 -1.35522 0.157049 0.31881 -1.35427 0.0926905 0.36695 -1.28851 -0.232304 
0.520294 -1.33304 -0.241322 0.492522 -1.2928 0.204129 0.548576 -1.22591 0.527673 
0.644491 -1.28724 0.408198 0.776725 -1.34071 0.46231 0.423595 -1.34423 0.228872 
0.676781 -1.41468 0.13651 0.589188 -1.22281 -0.399396 0.601048 -1.35843 0.188456 
0.854241 -1.22714 -0.31614 0.390789 -1.29516 -0.2984 0.828403 -1.29982 0.283797 
0.759015 -1.28957 0.419786 0.332632 -1.28437 -0.171981 0.571271 -1.27629 0.288641 
0.670116 -1.27281 -0.166631 0.490133 -1.2497 0.14541 0.879544 -1.29186 0.214308 
0.970285 -1.38753 0.0887692 0.535618 -1.28036 0.0564818 0.995221 -1.25537 0.443789 
0.648727 -1.33019 0.341108 0.941797 -1.2961 -0.0630616 0.671469 -1.21083 -0.283764 
0.725583 -1.22909 -0.145203 0.79125 -1.3042 -0.0807269 0.82097 -1.34986 -0.0455679 
0.7399 -1.31838 0.177938 0.702591 -1.35511 0.138536 0.85964 -1.29909 -0.0263014 
1.00894 -1.24927 0.086528 1.06215 -1.27496 0.0385572 0.912244 -1.25107 -0.140001 
0.786902 -1.28888 0.11485 1.10899 -1.28527 0.393637 1.0043 -1.2468 0.189057 
0.818641 -1.24341 0.228992 0.698391 -1.25828 0.110992 0.93136 -1.36162 0.216165 
0.857244 -1.28508 0.118869 1.19577 -1.36104 0.117246 0.947667 -1.35365 0.143807 
1.12381 -1.25912 -0.0981638 1.02645 -1.26094 0.27537 0.763041 -1.22451 0.0950479 
0.992944 -1.35451 0.196294 0.29759 -1.4153 -0.358878 0.199599 -1.37213 -0.327226 
0.0322034 -1.4135 -0.0346123 0.441311 -1.28069 0.531353 0.0339859 -1.41171 0.191302 
0.0880483 -1.32446 -0.107036 0.340213 -1.30687 -0.394474 0.0369042 -1.36209 0.0211671 
0.0326481 -1.34522 0.488176 0.346395 -1.40639 0.198505 0.151657 -1.41314 0.444402 
0.3239 -1.34693 0.532516 0.0880598 -1.39513 0.227379 0.326566 -1.35888 -0.265533 
0.218162 -1.3508 -0.128972 0.247835 -1.41429 -0.201059 0.12478 -1.33757 0.153018 
0.311885 -1.29156 0.501978 0.0914701 -1.33717 -0.219859 1.00545 -1.41418 0.472966 
0.234056 -1.40735 0.202614 0.218305 -1.34173 -0.0601764 0.403421 -1.35843 -0.282331 
0.15092 -1.32358 -0.0010974 0.582361 -1.41374 0.215455 0.468968 -1.4131 0.144628 
0.452209 -1.28908 0.341094 0.27381 -1.35697 0.322777 0.194227 -1.36246 0.157573 
0.311472 -1.34573 0.270468 0.802618 -1.4127 -0.226393 0.190197 -1.38816 0.264686 
0.356659 -1.3424 -0.0620939 0.161698 -1.30575 -0.120755 0.394468 -1.41526 -0.141313 
0.293269 -1.35432 -0.0873435 0.465348 -1.33988 0.395998 0.479113 -1.25496 0.394922 
0.297823 -1.35992 -0.022116 0.358375 -1.34945 0.0163127 0.800916 -1.29766 -0.212221 
0.37891 -1.36167 0.155186 0.336226 -1.34528 -0.179602 0.352511 -1.29995 0.131928 
0.377611 -1.29362 0.256162 0.347344 -1.33269 0.211701 0.525958 -1.23588 0.436732 
0.447922 -1.29516 0.108853 0.734835 -1.25945 -0.2103 1.05805 -1.36703 -0.147645 
0.310154 -1.30423 0.00398482 0.443656 -1.30485 -0.0198197 0.836474 -1.41477 -0.140645 
0.613572 -1.36234 -0.0114351 0.649982 -1.3631 0.27517 0.50144 -1.35077 0.24442 
0.518272 -1.26082 0.345311 1.14792 -1.36793 0.380219 0.62873 -1.36896 -0.0746824 
1.12056 -1.28383 -0.219297 0.725254 -1.29691 -0.116731 0.853525 -1.32466 -0.107612 
0.686937 -1.3636 -0.0514612 0.746211 -1.34164 -0.00649213 0.897853 -1.35459 -0.0555501 
1.05009 -1.2361 0.467579 0.635971 -1.31482 0.0923151 0.840927 -1.41501 0.253935 
0.652727 -1.25814 -0.0946087 0.895547 -1.35379 0.0898599 1.09814 -1.31901 -0.00115539 
1.01078 -1.3112 0.00853207 0.813379 -1.37077 0.0466261 0.753364 -1.3396 0.102056 
0.695549 -1.29837 -0.0353419 1.05043 -1.34977 0.154904 0.854841 -1.41217 0.091464 
1.18058 -1.23163 0.410067 0.994639 -1.29005 -0.105971 1.0975 -1.40835 0.172896 
0.963259 -1.37556 -0.0366556 0.971484 -1.31624 0.0849885 0.859181 -1.20957 0.455256 
0.0341698 -1.3773 -0.227754 0.0314945 -1.41421 -0.173504 0.0354917 -1.41021 0.467883 
0.072399 -1.41424 0.307891 0.0838394 -1.37134 0.528368 0.0998637 -1.41553 0.479713 
0.0770286 -1.41064 -0.339171 0.166902 -1.39473 -0.39495 0.384451 -1.36053 -0.403686 
0.0336249 -1.41208 -0.285951 0.051294 -1.41294 0.0665627 0.264709 -1.4091 0.470982 
0.0355788 -1.41055 0.36401 0.240251 -1.4087 0.370466 0.142589 -1.41182 0.527291 
0.301216 -1.35418 -0.332158 0.142955 -1.41429 -0.331464 0.145809 -1.41471 -0.269125 
0.640446 -1.41014 -0.320164 0.42429 -1.41293 -0.23704 0.115808 -1.41367 0.0604133 
0.0974903 -1.34391 0.422073 0.392036 -1.33181 0.529311 0.109646 -1.35187 0.315649 
0.50094 -1.4062 0.400653 0.175001 -1.3714 0.0533191 0.310276 -1.40789 -0.168357 
0.292552 -1.41419 0.0897415 0.209791 -1.40959 -0.0930413 0.355108 -1.34891 0.46962 
0.316683 -1.32225 0.415512 0.291407 -1.40986 0.249618 0.713846 -1.35033 0.518689 
0.207091 -1.35178 0.332069 0.410857 -1.35011 0.349668 0.45361 -1.34852 -0.224157 
0.383515 -1.3558 -0.218962 0.0654373 -1.35874 0.109016 0.455307 -1.40706 -0.172992 
0.243134 -1.35271 0.267321 0.263564 -1.35817 0.128588 0.420447 -1.35385 0.450649 
0.336747 -1.32098 -0.122272 0.457233 -1.41043 0.0499581 0.621456 -1.28626 -0.382285 
0.523241 -1.29212 -0.290433 0.569889 -1.41475 0.064962 0.518655 -1.28591 0.489682 
0.648234 -1.41098 0.225419 0.550299 -1.35131 -0.296734 0.456603 -1.41397 0.209105 
0.680568 -1.36147 0.394785 1.07268 -1.29144 -0.269867 0.462857 -1.28386 -0.0797402 
0.427819 -1.34136 -0.0858787 0.501874 -1.32632 0.0148913 0.438293 -1.34185 0.0377524 
0.529221 -1.33134 0.355541 0.571446 -1.2898 0.535691 0.942794 -1.2549 0.531368 
[...]
POINT_DATA 1274
FIELD FieldData 10
VELOCITY 3 1274 double
-7.5942726943e-06 -3.6484189261e-05 -9.0005026773e-05 -0.00021504969336 1.783780968e-05 7.7487853387e-05 -0.00017872512021 -4.7461855088e-05 0.00015282172593 
-4.7756319215e-05 4.3918741271e-06 0.00011279740557 -0.00013134958521 -3.1348618083e-05 5.7008319708e-05 -5.9975771462e-05 6.771218682e-05 0.00019820961791 
-0.00022241959122 -5.2600358016e-05 -2.8157116547e-05 -0.00025269459971 2.7614749972e-06 -0.00013134391377 5.4913391219e-06 7.8851392864e-05 -0.00016568102017 
7.1705278102e-05 -0.00010164740572 -0.00014009449644 -0.00018219543382 4.058743205e-05 2.6780271908e-05 -0.00020406726517 -0.00028375911543 -0.00010249928507 
-5.2270522126e-05 -0.00010691252135 5.7707079514e-05 -9.6135516076e-05 -3.9749610213e-07 1.4767175083e-06 -6.3490980724e-05 -1.0500527777e-05 6.7087161115e-05 
7.7710680393e-06 3.4454545547e-05 -8.6965376958e-06 -3.6904551938e-05 8.7329169234e-06 1.2389379426e-05 -0.00028684646099 -0.00012441496106 -2.9578324197e-05 
1.3202007573e-05 -0.00019628975998 -0.00018150096075 -9.1054439702e-05 -7.6664862821e-06 7.0357612975e-05 0.00039108188603 -7.9918842199e-05 2.8177972034e-05 
0.00010225703877 -0.00011084305727 -0.00014052710626 7.4572457307e-05 -4.0156369197e-05 8.8994373587e-05 -7.9696485062e-05 1.1625729711e-07 1.6460105078e-05 
-0.00011988013283 -9.0295829173e-05 0.00022466998523 -0.00018388413413 -1.0452534986e-05 8.862246324e-05 -2.9610065821e-05 -0.00011155796047 1.3571793332e-07 
-0.00027139600001 -9.7983029997e-05 -2.351315237e-05 -0.00016035979821 -3.2617125295e-05 5.922581428e-05 -0.00041945545576 -7.6419818881e-05 1.8519287515e-05 
-0.0002026985309 -6.7913592314e-05 0.00018181087413 1.5297899667e-05 4.6872471461e-05 -0.00022563563026 -0.00022486251118 -0.00018439091081 -3.4753225102e-05 
2.1092222188e-05 -0.00018169417431 -4.1768790141e-05 0.00017112336152 5.5519144995e-05 -7.0845334846e-05 0.00012331302186 -0.00017274199991 -4.7916581343e-05 
-0.00013391051607 -0.00013480053228 -0.00017202065903 -3.0357296911e-05 -0.00022486713083 9.3042137582e-06 -4.6558180934e-05 -0.00012921416209 6.6518126824e-06 
0.00038660572123 -0.00025532003867 0.00028180921113 -6.4105875903e-05 -0.00034284271352 9.7828422864e-05 -3.359306588e-05 2.8183777195e-05 0.00011320005924 
-0.00020110814388 -5.1062487048e-06 -6.1827366859e-05 5.1758427089e-05 -4.8757323729e-05 -0.0001029687308 -0.00020990882569 -7.7567586848e-06 0.00037090084598 
0.00014398479668 -0.00020015128407 0.00011311906162 1.7187062022e-05 -0.00014067277581 3.3918998899e-05 -0.0004226139054 -4.0871154345e-05 0.00011489695811 
-0.00020458390457 -4.2802287484e-06 -3.463428156e-05 -5.6686025491e-05 -7.9449839232e-05 -2.4288619685e-05 3.5554677324e-05 -7.6035430877e-05 5.40295051e-07 
1.1384521685e-05 -0.00036104693882 0.00011064011437 -0.00016124535337 -5.5169088835e-05 -7.3487592542e-05 -0.00016640376534 0.00011972784984 4.5933089919e-05 
-0.00010124277466 -6.5481361914e-05 0.0001545930997 -9.181058993e-05 -2.0715436612e-05 -7.5109518082e-05 6.7444453951e-05 -2.0301944984e-06 5.8110964868e-05 
7.5586050114e-05 -6.6198755441e-07 3.5785241956e-05 -7.3858202888e-05 4.3748087759e-05 6.3185124913e-05 -5.3340260201e-05 -5.4026441977e-06 0.00011098479121 
-0.00015398704395 5.7335507454e-06 0.00020658038796 -0.00017748242803 -0.00011252848225 -5.5756494153e-05 -0.00026543593156 -4.4407768509e-05 1.1955931052e-05 
7.1689207045e-07 -5.1756811925e-05 0.00016114799593 -0.00015207491146 -0.00022558639566 0.00022379904018 -7.5655431031e-05 -0.00014946480613 -1.1545740039e-05 
-0.00024098121134 3.1547705498e-05 5.2337900368e-05 -8.4162956409e-05 1.5775547673e-05 4.3613313142e-05 -0.00010730761642 4.405494488e-05 -9.5301691517e-06 
-8.584234995e-05 -2.6629209512e-05 6.8179133577e-05 -0.00017409465575 3.5167770925e-05 0.0001758325675 -9.0871222107e-05 -4.4849259805e-05 2.3343422531e-05 
-5.5580946685e-06 -6.7202510464e-05 -4.0532938381e-05 -0.00016641996934 6.8931975155e-05 -1.7274551903e-05 4.7793513352e-05 -9.7950156757e-05 -0.00017995440539 
-8.0871662339e-05 -1.44767458e-06 0.00010189478718 -0.00024158233553 -0.00010602703863 8.7321850678e-05 4.9055786443e-05 -6.6152658571e-05 5.9829133219e-05 
4.4809855556e-05 6.1033300455e-05 0.0002085337046 0.00031150665298 9.1756516013e-05 0.00013595807708 -0.00028394079353 8.2017793014e-06 0.00013511106756 
-0.00026268737231 -9.8796991834e-05 -4.9859150796e-05 -0.00019989240375 -0.00013245119135 8.0573902122e-05 5.1959093265e-05 -0.00010994082693 5.9078125955e-05 
5.3843758891e-05 -0.00028210680009 -0.00015102734744 -0.00013331529552 -6.5118442291e-05 -0.00013122711376 0.00020366886622 -0.00019628452975 -0.00011935646973 
0.00025528163454 -0.0001343165963 8.8605741645e-05 6.9964548557e-05 -0.00017219185627 0.00013238141825 0.00011610620697 -0.0001379470701 -0.00012283783979 
-0.00024248212699 6.0603213665e-05 1.5966846767e-06 -7.4072791416e-05 -6.2535993962e-05 3.2392108316e-05 -0.00011705703763 -1.0467119368e-05 -5.2692350023e-05 
4.4712504877e-05 -0.00028570205702 -0.00021987167825 -0.00011360055626 2.3796386997e-05 0.00017412138085 -3.2340251741e-05 -0.0003323905316 -0.00028949991484 
-2.3164455571e-05 3.4026817507e-05 -5.4793361845e-05 0.00015639566578 -5.191056196e-05 0.00011802376581 7.5169250074e-05 -1.669759347e-05 -0.00016195043093 
-5.0746413784e-05 -7.5787126441e-06 -5.6624850499e-05 -0.00022271308691 4.2138464051e-05 5.2291987645e-05 7.1770570822e-05 -6.8198525833e-05 -0.0002085207021 
-0.00019106600939 9.2464774613e-05 0.00011252859806 -2.4327977801e-05 -0.00021558005624 -9.5679757666e-05 4.457757933e-05 -0.00012445254763 -0.0001859673046 
-4.5376493917e-06 -0.00024933977702 -0.0002110867876 -3.93735546e-05 1.9151272765e-05 -0.00010685713445 4.283816772e-05 -3.9549368478e-05 -0.0001049108062 
6.7333011374e-05 -0.00020826405446 7.028930191e-05 -3.7900858152e-05 -2.8767523217e-05 -0.00014944766662 -4.194393242e-05 6.4261239673e-06 8.5878581311e-06 
0.00010750708323 -0.00011322217852 0.0001474008804 -0.00011997951891 -0.00032832019093 8.3615304542e-05 -9.7172548765e-05 -7.852735246e-05 3.3494503951e-05 
-1.1617686981e-05 2.766703013e-05 1.6391833098e-07 0.00014694057612 -0.00010934125194 -7.5915349629e-05 -4.3073392802e-05 -4.4145412971e-05 -3.8265461097e-05 
3.7025947704e-06 -1.0143256969e-05 3.4144606183e-06 -7.7206787562e-05 6.8828737029e-05 1.4875711975e-05 2.3372345242e-05 -0.00032465070707 -0.00021377642893 
0.00011319878749 -0.0003422681952 -0.00017936321555 0.00014364006126 2.5932986352e-05 -0.00014594173083 -0.00019717882976 -1.1067581364e-05 -6.6213182317e-05 
-0.00016122658335 -9.9809457715e-05 8.1001183981e-05 -0.0001002044712 -8.446999233e-06 9.8240033282e-05 -4.4296286705e-05 3.6573625671e-06 -0.00016448710469 
-3.3064273943e-05 -2.8602131739e-05 -6.3809235528e-05 4.0983686021e-05 -8.9506053091e-05 -0.00010777083622 -0.00027585872742 -0.0001671816038 0.00032249018678 
-0.00024102150142 -0.00019862322173 6.2458439773e-05 0.00021777934606 -0.00030688621205 -0.00013736237741 -7.1810066894e-05 5.9071900557e-05 -9.451055923e-05 
-0.00018572797081 -0.00020817965944 -8.247961584e-05 3.3463553881e-05 -4.4741758581e-05 -2.3019404883e-05 -0.00030120455815 -0.00015351869683 -0.00028660737086 
-6.2834842688e-05 -0.00022631852614 2.8369951007e-05 -1.2653769959e-05 -2.3162976185e-06 7.0435354518e-06 -1.2139821602e-05 2.7956613536e-05 -2.2764645652e-05 
1.5181258925e-05 -5.4291316747e-06 -3.111696394e-05 -1.3780236887e-05 4.1472747195e-05 0.00019405489613 -3.6963224422e-05 -7.1825426638e-05 -2.5864463873e-05 
-8.219166996e-05 1.2524395542e-05 -0.00010756914712 3.452808762e-05 2.4628358656e-05 -2.6619078953e-06 -0.00019771178689 -4.6838035726e-05 2.8195231992e-05 
-7.2219765483e-06 6.3725368734e-06 -3.0156968257e-05 4.6154564761e-05 5.3500062556e-05 -3.0351985278e-05 -4.742957863e-05 -4.300597633e-05 -9.8580080131e-06 
8.9755994157e-05 -5.8544346292e-06 5.9279264899e-05 -5.4068620377e-05 -7.6749903051e-06 4.4890301983e-05 -7.516570374e-05 -3.4917423819e-05 -0.00010103107083 
-5.2477691543e-05 -0.00019753948619 0.00013018057459 -2.3425796455e-05 2.7065385071e-05 -5.7972458626e-05 -0.00024154756291 -1.0001150424e-05 -9.1393341704e-05 
-7.8948627572e-05 0.00015589195584 0.00014599283536 -0.0001048823153 5.0291416748e-05 7.0451776969e-06 -9.7227883717e-05 -6.8539658891e-05 -5.4658347674e-05 
-0.00014291735105 -4.8928121757e-07 3.639622681e-05 -0.00018878701598 4.9135363121e-06 4.14281279e-05 3.2953034953e-05 -2.9892939043e-05 2.5764773048e-05 
-6.0250936601e-05 1.6313473004e-05 -5.9454816682e-05 -0.00016151369693 -5.2502368806e-05 -3.5884129349e-05 0.00028055900092 -9.2427339731e-05 -3.4271079654e-05 
-0.00012091386356 2.951468612e-06 0.0001409180899 0.00013560986451 -7.7626413715e-05 -7.6004097496e-05 -0.00013968897279 -2.2883778153e-05 3.2602747783e-05 
-8.3333917673e-05 5.0100278072e-05 3.9190114845e-05 -0.00013832739532 4.2902669562e-05 0.00015327455867 -0.00020859690711 -3.5016273256e-05 3.9345346395e-05 
-2.0816789895e-05 -0.00019121266144 6.7897798198e-05 -5.1474695553e-05 -9.5682776505e-06 2.6238270732e-05 6.8909760832e-05 -8.2143204757e-05 8.6554535337e-06 
-8.5875158149e-05 5.5716248945e-05 -3.865302331e-05 -0.00019006858817 8.8193514571e-05 0.00024131503398 -0.00026042216011 6.4509676545e-05 -8.3212968409e-05 
-0.00013417753835 -1.9343746498e-05 2.3073575334e-05 6.5565682865e-05 -0.00028552864988 3.6958698948e-06 -0.00013965863117 1.7438433774e-05 4.8420178165e-05 
6.1673098864e-05 -0.00020814213028 0.00019133268209 -0.00017624984096 -1.0778975973e-05 8.0426032937e-05 -5.052169231e-05 -7.0870097786e-05 5.2894165195e-05 
-5.6062347723e-05 6.541984575e-05 -9.4652488612e-05 -0.00010411944716 3.7490901957e-05 0.0001091211562 -7.0609116248e-05 -2.5841593587e-05 -0.00015904200277 
-3.9687876038e-05 -0.00029544514636 0.00010921725461 5.2103472571e-05 -0.00011490050467 -1.1310283899e-05 8.6371702657e-05 3.0617519545e-06 6.3519225394e-05 
-4.4150639191e-05 0.00018229690756 2.7888685948e-05 -1.0152204022e-05 -5.3003513881e-05 1.0548628243e-05 0.00022776005055 -0.00010685405445 -6.4715832633e-05 
4.7323951222e-05 -4.3161643822e-05 1.9876768769e-05 6.2591999835e-06 -4.5744557794e-05 9.7005402481e-05 -0.00018586877592 -0.00021589121354 -0.00013478629182 
-0.00014437680829 -6.0902099382e-05 -6.0535388316e-05 -6.5187680396e-05 -3.9451881015e-05 -3.0849901696e-05 6.9089668518e-05 -4.1881391423e-05 -0.00018464448429 
-1.9682659677e-05 -7.3575528391e-05 -0.000113123739 -0.0002675685456 -0.00011184960714 0.00012070275469 -1.9532046007e-05 -5.6515968016e-05 0.000136061757 
8.8725708309e-05 1.6018628564e-05 -0.00012577654221 7.3707458986e-05 -0.00014746845308 -8.6887062061e-05 -9.4454388103e-05 -7.1391132651e-05 0.00023077093001 
-7.4282180979e-05 -0.00013083474518 -0.00012393183741 -0.00025243354871 -0.00069912216162 -0.00061347256338 -3.9982063236e-05 -3.4372288414e-05 7.0306483145e-05 
1.3041489594e-05 -6.0265211377e-05 5.1959946605e-06 -0.0001229467209 -3.1811064944e-05 2.0949506611e-05 -0.00020476030051 -0.00023494502811 -0.00032565115234 
-0.000132603788 5.659963936e-05 -2.0086121038e-05 -3.7747853357e-05 -9.5542582441e-05 5.1421085042e-05 8.5250054301e-05 9.1278464054e-05 0.00011647457443 
3.8747655729e-05 -0.00017889555788 -0.00017847002068 -4.5698876392e-05 -0.00013467986276 8.2644368937e-05 -7.788649393e-05 -0.00015005477785 -6.8430071589e-05 
-0.00017230563978 -0.00058279849712 -0.00025794573736 0.00014148661561 0.00013867973288 -0.00014980879841 -4.3937128633e-06 3.9029630162e-05 -3.4832406944e-06 
1.6433751995e-05 -1.117049899e-05 -5.9875496322e-05 -7.208774463e-05 -5.3974803449e-06 -2.2355750214e-05 1.6971055394e-05 -0.00026188312837 0.00017280058485 
5.2117645732e-05 -0.00017289347298 -2.1601998503e-05 -9.2913271198e-06 -5.9720245788e-06 3.1832155528e-06 1.7115573583e-05 1.2835050635e-05 6.6332179606e-05 
-5.796695384e-06 5.4522755926e-05 -0.0001778754588 -0.00010425813954 2.373901678e-06 1.2628673482e-05 -0.00028522761348 0.00019413487181 -0.00017682887439 
-9.3262938962e-05 -2.5494302867e-05 2.5581357074e-05 -3.596460195e-05 6.6973317031e-05 3.4964642897e-05 -4.6635021098e-05 -1.2468342619e-05 -1.8705703486e-05 
-5.8747260072e-05 -7.5833565401e-05 0.00012642147419 -0.00061799765896 7.3975393383e-12 0.00080473983804 -0.00016670694947 4.4817891646e-05 2.8769205108e-05 
-5.5375243471e-05 -5.0560365496e-05 -4.8326166376e-05 -5.6461601338e-05 0.00016693376864 -7.9703735892e-05 -8.0317085223e-05 -1.3220765481e-05 4.9621666151e-05 
-0.00013518344846 1.5491889099e-05 -8.255569967e-05 0.0001221726805 -0.0001891784409 0.00014867532642 -3.0238503783e-05 2.4128804227e-05 -1.0516162794e-05 
-7.4295543099e-05 -6.5581198963e-05 -4.0131714286e-05 -2.4067269537e-05 2.7540416369e-05 0.00014125799704 8.5083090544e-06 1.0535027408e-05 9.4282734314e-05 
-0.00025154484197 -4.0834544385e-05 5.5508963762e-05 -0.00014155189964 -4.5494935774e-05 3.7470909568e-05 -0.00018231261768 2.1823307927e-05 -2.219638189e-05 
-0.00014176826597 -3.6825425517e-05 7.6975260747e-05 8.0539217821e-05 1.7968897464e-06 -0.00014091201927 -1.0406594333e-05 -0.0001458862106 1.733907896e-05 
0.00020071487298 -8.7101868588e-05 -3.5653144205e-05 2.7364660902e-05 9.9486150204e-06 9.1696965146e-05 -3.0736114647e-05 9.719400572e-07 0.00015135288063 
5.8475955141e-05 -7.3018139567e-05 -5.0926863791e-06 -0.00017981247207 -7.2883423309e-05 -5.87978511e-05 -8.1620694476e-05 -0.00011565605722 5.6123910125e-05 
-0.00013065580459 -3.5469367709e-05 3.7620969986e-05 -0.00018975226594 -3.0443386262e-05 1.9784765391e-05 7.6961575816e-05 -0.00014316644083 -7.7932568046e-05 
-6.9809311564e-05 9.5456626915e-06 -8.7558805826e-06 -2.3242739842e-06 0.00018198590556 -0.00011877154156 -0.00012729697776 1.2485632592e-06 3.0265480569e-05 
-2.4982184063e-05 2.2873879093e-05 -1.029209248e-05 -5.7981664516e-05 -3.1665646946e-05 5.9181556965e-05 -4.318633342e-05 -0.0001737632418 5.373314061e-05 
-9.0276381935e-05 -2.648451985e-05 -4.5845685535e-05 -4.019506771e-05 -0.00037617341337 9.7809465111e-05 -1.1033640157e-05 -3.1780094914e-05 5.2188663421e-05 
-0.00018560965846 -7.4927705181e-06 3.8054757973e-05 1.2338182364e-05 -8.8220167902e-05 -2.1838133791e-05 -7.6325265801e-05 -3.8198449454e-05 6.617804504e-05 
-2.1675950726e-05 -3.0127685606e-05 -0.00014953859947 -5.7608504893e-05 -8.7520477028e-05 0.00012139988633 -0.00021217086354 -8.1038987525e-05 -1.4277836587e-05 
-0.0001213902545 -0.00022902063736 -8.1995328389e-06 9.6553765962e-05 1.9107456375e-05 4.6292657031e-05 -7.5948554208e-05 -6.5369279782e-05 2.5900549269e-05 
8.8672200905e-05 -0.0001339956149 -0.0001280036187 8.5477330377e-05 -0.00021875110728 -0.00039691893332 -0.00017474558003 -5.6720678903e-05 0.00015886354223 
8.9406981914e-05 0.00011337232532 0.00012050542911 -0.00014104754947 -0.00011118055549 -8.7713854517e-06 -1.0627590902e-06 3.6575830991e-06 2.7500708405e-05 
0.00011008468065 5.342708758e-06 6.8209155215e-05 7.9051043851e-05 -2.5339044935e-05 7.5613945531e-07 -0.0002096396245 -2.8380112225e-06 -0.00018749331528 
8.5412631117e-06 -0.00023342734969 -0.00014461862412 -0.00013829709013 -1.4878696257e-05 1.3844496959e-07 -6.574260802e-05 -0.00027197751032 -0.00023298929148 
6.6773770437e-06 -0.00010258763615 -4.9293281269e-05 0.00022015094807 -0.00014734984626 8.7989931829e-05 -0.00019387948257 -4.7228796749e-05 0.00025434982092 
-0.00020200584951 -0.00013675435122 -0.00018319984341 3.9675927039e-05 0.00010862199755 -0.00015572211972 -1.9822133631e-05 1.259631135e-05 0.0001950192652 
0.00017587579885 -0.00024510707143 -2.5783666906e-05 0.00016119550645 7.1563376199e-06 0.00018170201047 -0.00032164219135 -3.7558463437e-05 -0.00027839327439 
-0.00015579744104 -5.4406249628e-05 9.367651324e-05 -7.3921508647e-05 0.0001096942203 -1.1892525468e-05 -0.00020378394881 -0.00016251962067 -0.0003320514611 
1.7968905323e-05 -4.2481919757e-05 -0.00021357729711 -0.00013844135819 0.00018300101342 -8.0217376499e-05 -1.6718765362e-05 -3.6520114406e-05 -9.9793553619e-06 
-5.3744686453e-05 3.5150294622e-12 0.00021754223253 -0.0001949527691 9.0736861358e-05 -3.422533707e-05 0.00010775521913 2.2931399254e-05 0.00040665287897 
8.2741888189e-05 1.2593912713e-05 -0.00010463467671 7.6104580479e-07 5.0283230537e-05 -1.7812034878e-06 -2.8248285305e-06 1.1783096228e-05 1.4354227235e-05 
3.8658259584e-05 3.6271900777e-06 -5.238527926e-05 -2.1284145067e-05 -1.9052418367e-05 -1.0632480505e-05 -0.00021554838361 5.1665362896e-06 3.0771706757e-05 
4.0758690162e-05 2.4690286035e-06 0.00015405519757 0.00011735705182 -4.261621222e-06 4.2213131713e-05 -0.00019627184989 -3.9348146007e-06 0.00026314504839 
-0.00011710121381 -6.2199773812e-05 0.00012299396461 1.2414204494e-05 -6.8193318346e-05 -1.5811471655e-05 -5.9531381429e-05 8.3255971675e-05 5.0339576181e-05 
3.4015299023e-05 -1.3972418005e-05 0.00012253744672 -2.3888113073e-05 5.6602854235e-06 -1.049453898e-06 -4.9838651059e-05 2.4014468544e-12 -0.00010956749742 
1.2376163354e-05 3.2583409416e-05 -3.1796290035e-05 -8.0656031225e-05 4.2203578392e-07 -1.7722536717e-05 -3.3112016342e-06 9.3082596443e-06 0.00012195216152 
4.4110829245e-05 -5.1620527521e-06 -0.00024351714608 -6.8176514521e-05 -4.5439465138e-05 -0.0001298554348 -1.9061506778e-05 7.7454836454e-05 -3.7400729354e-05 
4.7744122197e-05 -1.3498825133e-05 -1.9708053263e-06 -3.5311011963e-05 -0.0002100168332 2.0670876023e-06 -0.00016877600034 -3.6253283654e-05 5.8446776336e-05 
-6.927388419e-05 2.4157166914e-05 2.0771856292e-05 -6.8883193208e-05 -1.8917767261e-05 7.2526342869e-05 8.3283428166e-05 1.0651213418e-05 0.00011352376579 
-8.3839674381e-05 -5.3240092561e-06 6.480207348e-05 -0.00028865791958 -4.6192043673e-05 -5.8777080801e-06 -9.1225710309e-05 -4.9440017696e-05 1.7885385292e-05 
7.6330963268e-05 4.2440819267e-05 9.9330647362e-05 -8.5051579539e-05 3.2111634038e-05 -6.253169604e-05 -0.00013891599158 1.3789612999e-05 8.1322596711e-05 
-0.00016429393395 -1.3861010478e-05 -2.9468929242e-06 -6.7175461235e-05 -4.9640948436e-06 2.487867602e-05 -0.00016556295825 -6.9971084593e-05 0.0001007481207 
5.1989498786e-05 -7.9956670239e-05 2.7858275238e-05 -0.00015948307631 -0.00016050892158 0.00018238528909 1.8987816527e-05 -0.00032509189877 -0.00011654875086 
-0.00021321888905 -3.3059711327e-05 -3.8991613026e-06 9.7945553746e-05 -3.2980534311e-05 -6.244355083e-05 -0.00031549931803 -3.1073655882e-05 0.00014686739595 
-0.00029404014666 5.1605972989e-05 9.7700193378e-05 -1.6432902894e-05 2.3914838016e-05 -4.0114768347e-05 -7.0293721124e-06 -9.5910803156e-05 -0.00015077608853 
-0.00013154593817 -1.0993627744e-05 7.5869909024e-05 -7.0763695313e-05 -0.00014902465927 4.1044331498e-05 -0.00015432944183 9.454187264e-05 1.7542002782e-05 
-0.00022859195077 3.3754387695e-05 0.00019723212287 -9.0786009741e-05 4.5001130058e-05 -1.2680437962e-05 -5.2168295769e-05 8.5461863428e-06 -1.065229107e-06 
-0.0001828218418 -0.00024496684343 -4.9768438528e-05 -7.5955681372e-05 -9.4258945484e-05 -3.2251436748e-05 -7.9583522999e-06 -0.00019997334999 -1.5145983715e-05 
-8.029288901e-05 4.7610975601e-06 3.6868588173e-05 -0.00013620699369 -6.5483246754e-05 -1.3781343728e-05 0.00019384337713 -6.1127024755e-05 -4.6598524188e-05 
0.00011430904746 -0.00021499196378 -0.0003602255533 -0.00022758462901 -0.00026277728007 -0.00028308671678 -0.00016898328805 2.6965061665e-05 -1.8906274442e-05 
1.5590285063e-05 -1.8120165761e-05 -0.00031325165599 -0.00011126941304 1.8831010572e-12 4.9845776734e-05 4.0984323981e-05 -6.4757244565e-05 -0.00020944809542 
-3.0950496666e-05 0.00018826066127 1.642491729e-05 -0.00030373002871 -0.00014025577344 0.00013469194001 -2.957815599e-05 3.6391238708e-06 -9.9641512987e-05 
-0.00011057044424 -8.6166585883e-05 0.00022193991235 -0.00020314602404 -0.00018546270532 -1.2932708573e-05 -0.00011882899457 -2.9960335961e-05 -5.1342293118e-06 
0.00018987005595 5.0667638675e-05 -6.3018843593e-05 -1.7454915632e-06 0.0001027460762 -5.3179763423e-05 -9.16076247e-05 1.2199729303e-05 -6.2639291796e-05 