# vtk DataFile Version 4.1
vtk output
ASCII
DATASET UNSTRUCTURED_GRID
POINTS 1274 float
0.273693 -1.29445 -0.0532778 0.273745 -1.3022 0.0958745 0.279424 -1.29494 0.317504 
0.157834 -1.31609 -0.211086 0.298457 -1.29135 0.178137 0.411559 -1.23456 -0.0670546 
0.381429 -1.29109 0.322101 0.470062 -1.23549 0.493016 0.512129 -1.24367 -0.00806298 
0.637027 -1.25334 -0.00562687 0.538881 -1.34672 0.187568 0.641233 -1.22264 0.434254 
0.852399 -1.27258 -0.151215 0.84348 -1.25445 -0.0829376 0.657732 -1.29641 0.158057 
0.755445 -1.27585 0.265866 0.696151 -1.27027 0.218741 0.793843 -1.20792 -0.0448797 
0.637065 -1.20757 -0.0560113 0.672389 -1.34643 0.00779445 0.715214 -1.19072 -0.0821811 
0.690722 -1.30817 0.278227 0.39101 -1.23455 0.281858 0.615217 -1.27212 0.224792 
0.912827 -1.23664 -0.0764836 0.301118 -1.2505 0.12839 0.657525 -1.20789 0.363646 
0.814093 -1.19497 -0.113157 0.921226 -1.31394 -0.000291357 0.822878 -1.22934 0.0380581 
0.971703 -1.20858 -0.0150269 0.656928 -1.22808 0.0466614 0.557568 -1.219 0.378499 
1.08239 -1.22285 -0.287857 1.03361 -1.24156 -0.141532 0.503977 -1.22137 0.280686 
0.78986 -1.27883 -0.0126113 0.634906 -1.27385 0.285655 0.405214 -1.25072 0.137807 
0.951854 -1.20272 0.0594378 0.85137 -1.2268 -0.208437 0.79809 -1.23314 0.160131 
0.838158 -1.21213 0.108837 0.748332 -1.22102 0.215991 0.903371 -1.24345 -0.00528322 
0.985279 -1.23826 -0.236484 0.891755 -1.2524 0.291576 0.886669 -1.21793 0.230248 
0.452213 -1.2993 -0.306749 0.167818 -1.33257 0.280781 0.145285 -1.35889 -0.0654366 
0.0370367 -1.33479 0.173679 0.286357 -1.34238 0.471607 0.255837 -1.33815 0.384997 
0.239848 -1.31337 0.16496 0.379598 -1.35341 0.285115 0.153355 -1.34834 -0.272874 
0.359443 -1.41001 0.0556501 0.611803 -1.28941 -0.213206 0.217783 -1.35346 -0.222107 
0.399528 -1.34728 -0.151316 0.371587 -1.35522 0.404651 0.399176 -1.29304 0.394596 
0.278111 -1.3483 0.208912 0.213406 -1.33836 0.00547558 0.485132 -1.26618 -0.187269 
0.413229 -1.3608 -0.0237431 0.583423 -1.34512 0.299884 0.433221 -1.28265 -0.142615 
0.304124 -1.28407 0.243111 0.552671 -1.36025 -0.0194307 0.376651 -1.2737 0.194414 
0.33141 -1.29838 0.0617603 0.330521 -1.26192 0.445494 0.508648 -1.22747 -0.0834273 
0.623481 -1.4128 0.0996317 0.544034 -1.25119 -0.240671 0.212459 -1.28188 -0.175331 
0.568426 -1.35598 0.0415484 0.541489 -1.30129 -0.0340566 0.327986 -1.26216 0.297812 
0.451337 -1.28845 0.450296 0.579783 -1.33504 0.469942 0.44653 -1.28096 0.264224 
0.511103 -1.29952 0.290999 0.45193 -1.36112 0.112123 0.615763 -1.3037 -0.0477534 
0.643837 -1.22736 -0.214023 0.972697 -1.28514 -0.284523 0.570405 -1.28637 0.172251 
0.475093 -1.28635 -0.250619 0.764585 -1.28925 0.343915 0.645516 -1.32734 0.220663 
0.577102 -1.23878 -0.0538329 0.999449 -1.26673 -0.0443958 0.741695 -1.25465 -0.0609847 
0.684797 -1.29043 0.0494345 0.876513 -1.34919 0.162056 0.603166 -1.25473 0.0797451 
0.780271 -1.23223 0.388039 0.790762 -1.24157 0.464738 0.545534 -1.2631 0.232817 
0.826027 -1.35951 0.207751 0.622013 -1.22514 -0.144794 0.687872 -1.23262 -0.0331247 
0.553125 -1.24078 0.123762 0.732415 -1.23673 0.0212339 0.808453 -1.30048 0.177977 
0.82889 -1.25047 0.34078 0.681253 -1.26711 0.329813 0.809222 -1.22666 0.532537 
0.912624 -1.24743 -0.369664 0.769588 -1.3099 0.0489823 0.437651 -1.25603 0.192622 
0.723892 -1.22675 0.535002 1.16354 -1.22118 0.0117465 0.62893 -1.26636 0.530089 
0.734239 -1.22571 0.317633 0.704902 -1.24511 0.415677 0.578906 -1.24341 0.0153663 
0.958728 -1.29277 0.219402 1.10573 -1.23871 -0.167147 0.838953 -1.3053 0.0441921 
0.976899 -1.22608 -0.0923469 0.908269 -1.28983 0.061795 0.616292 -1.23687 0.147448 
1.32158 -1.19722 0.526079 0.738713 -1.25646 0.160999 0.940154 -1.22531 0.193871 
0.952272 -1.20835 0.423019 1.21196 -1.26354 -0.182839 0.905095 -1.23206 0.0977374 
1.04504 -1.22591 -0.00802852 0.863863 -1.23345 0.171978 1.10049 -1.25828 -0.0322831 
0.963344 -1.26299 0.0318224 0.0866805 -1.41341 -0.24663 0.285895 -1.36069 -0.2131 
0.430071 -1.40919 -0.397639 0.0351688 -1.35956 0.315488 0.213235 -1.32117 0.482542 
0.0966458 -1.40799 0.156647 0.216648 -1.34412 -0.402017 0.500591 -1.31856 -0.348256 
0.0870875 -1.35983 -0.381508 0.493687 -1.34762 0.459703 0.251029 -1.279 0.529061 
0.147156 -1.35435 0.379461 0.241048 -1.41179 0.297751 0.0966514 -1.35821 -0.0125835 
0.276967 -1.32008 -0.15658 0.0800921 -1.35881 -0.288983 0.472193 -1.35384 0.309864 
0.348622 -1.40768 -0.0292544 0.129609 -1.34346 0.230537 0.213224 -1.33462 0.098105 
0.219601 -1.29566 0.291461 0.320755 -1.29138 -0.295051 0.270944 -1.34801 0.0404336 
0.422467 -1.3183 0.166101 0.0825499 -1.29266 0.215254 0.515617 -1.3006 0.41902 
0.893208 -1.3002 0.533049 0.54695 -1.35566 0.420394 0.240789 -1.2949 0.228691 
0.318155 -1.35522 0.156991 0.318843 -1.35427 0.0926311 0.367227 -1.28846 -0.232382 
0.520264 -1.33286 -0.241394 0.492607 -1.2928 0.204064 0.548562 -1.22586 0.527673 
0.644566 -1.28731 0.408228 0.776867 -1.34079 0.462102 0.423721 -1.34426 0.228921 
0.676868 -1.41468 0.136498 0.590712 -1.2219 -0.399396 0.601149 -1.35845 0.18848 
0.854213 -1.22699 -0.316312 0.391157 -1.29514 -0.298442 0.828437 -1.29973 0.28379 
0.759106 -1.28958 0.419819 0.332792 -1.28447 -0.172115 0.571318 -1.27626 0.288723 
0.670141 -1.27259 -0.166645 0.49012 -1.24964 0.14539 0.8795 -1.29189 0.214262 
0.970372 -1.38757 0.0886796 0.535633 -1.28034 0.0564647 0.995012 -1.25522 0.443868 
0.648752 -1.3302 0.341085 0.941771 -1.29607 -0.0631363 0.673292 -1.20892 -0.278006 
0.725683 -1.22901 -0.145124 0.79131 -1.30417 -0.0806925 0.820876 -1.34983 -0.0454116 
0.739913 -1.31833 0.178051 0.702792 -1.35506 0.138475 0.859678 -1.2991 -0.0262892 
1.00887 -1.24926 0.0866567 1.06211 -1.27487 0.0386202 0.912299 -1.25101 -0.140176 
0.786909 -1.28878 0.114952 1.10919 -1.28478 0.394077 1.00431 -1.24677 0.18895 
0.81858 -1.24333 0.228999 0.698495 -1.25826 0.110984 0.931565 -1.36144 0.216452 
0.857258 -1.2851 0.118935 1.19584 -1.36097 0.117202 0.947514 -1.35378 0.143674 
1.12379 -1.259 -0.0980172 1.02648 -1.26083 0.275325 0.763118 -1.22439 0.0951536 
0.993082 -1.35402 0.19649 0.297586 -1.4153 -0.358849 0.199587 -1.37217 -0.327218 
0.0322035 -1.4135 -0.0345599 0.441368 -1.28069 0.531353 0.0339863 -1.41171 0.191291 
0.0880183 -1.32434 -0.107002 0.340226 -1.30686 -0.394473 0.0369042 -1.36213 0.0211637 
0.0326481 -1.34526 0.488307 0.34647 -1.40639 0.198487 0.151756 -1.41314 0.444416 
0.323955 -1.34691 0.532516 0.0881134 -1.39517 0.227309 0.326596 -1.35887 -0.26552 
0.218208 -1.35073 -0.129092 0.248307 -1.41429 -0.20167 0.124899 -1.3376 0.152991 
0.311943 -1.29152 0.502016 0.0915045 -1.33728 -0.219794 1.00552 -1.41418 0.472959 
0.234142 -1.40735 0.202619 0.218262 -1.34162 -0.0603002 0.403443 -1.35846 -0.28232 
0.150972 -1.32352 -0.00109273 0.582367 -1.41374 0.215348 0.469038 -1.4131 0.144602 
0.452399 -1.28905 0.341043 0.273928 -1.35693 0.322747 0.194351 -1.36247 0.157599 
0.311557 -1.34571 0.27041 0.802463 -1.4127 -0.226482 0.190259 -1.38808 0.264682 
0.356554 -1.34235 -0.0620795 0.161684 -1.30576 -0.120816 0.394481 -1.41526 -0.141424 
0.293214 -1.35425 -0.0873708 0.465479 -1.33983 0.396047 0.479199 -1.25489 0.39489 
0.297903 -1.35989 -0.0221553 0.358529 -1.34946 0.0162614 0.800819 -1.29752 -0.21218 
0.378977 -1.36167 0.155172 0.336253 -1.3453 -0.179578 0.352642 -1.29995 0.131953 
0.377631 -1.29363 0.256158 0.347421 -1.33269 0.211635 0.526042 -1.23577 0.436684 
0.447896 -1.29512 0.108879 0.734809 -1.25918 -0.210328 1.05806 -1.367 -0.147673 
0.310304 -1.30423 0.00397282 0.443841 -1.30487 -0.0198074 0.836506 -1.41477 -0.140679 
0.613583 -1.36229 -0.0114242 0.65003 -1.36313 0.275157 0.501579 -1.35072 0.244415 
0.518391 -1.26064 0.345293 1.14795 -1.36797 0.380271 0.628716 -1.36885 -0.0745867 
1.12049 -1.28375 -0.219201 0.725223 -1.29672 -0.116415 0.853669 -1.32462 -0.107704 
0.686977 -1.36359 -0.0514804 0.746393 -1.34158 -0.00648285 0.897886 -1.35459 -0.0555711 
1.04999 -1.23609 0.467526 0.635935 -1.31483 0.0923131 0.84111 -1.41501 0.254106 
0.652703 -1.25795 -0.0945054 0.895578 -1.35378 0.0897914 1.09822 -1.31891 -0.000991188 
1.01076 -1.3111 0.00852166 0.813331 -1.37069 0.0466095 0.753514 -1.33954 0.101928 
0.695685 -1.29826 -0.035185 1.05052 -1.3498 0.15498 0.854849 -1.41217 0.09132 
1.18046 -1.23146 0.410085 0.99456 -1.29002 -0.106112 1.09762 -1.40835 0.172989 
0.963309 -1.37555 -0.0367201 0.971548 -1.31631 0.0849819 0.859361 -1.20944 0.455534 
0.0341699 -1.37737 -0.227654 0.0314947 -1.41421 -0.173361 0.0354917 -1.41021 0.46789 
0.0724324 -1.41424 0.307719 0.0839146 -1.37143 0.528368 0.0998837 -1.41553 0.479612 
0.0769871 -1.41064 -0.339144 0.166912 -1.39477 -0.39495 0.384434 -1.36054 -0.403686 
0.033625 -1.41208 -0.28589 0.051365 -1.41294 0.0665759 0.264826 -1.4091 0.47098 
0.0355967 -1.41055 0.3639 0.240155 -1.4087 0.370409 0.142723 -1.41182 0.527087 
0.301539 -1.3542 -0.332122 0.142918 -1.41429 -0.33147 0.145813 -1.41471 -0.269133 
0.640483 -1.41014 -0.320217 0.424305 -1.41293 -0.237068 0.115865 -1.41367 0.0604975 
0.0974809 -1.34393 0.42211 0.392096 -1.33181 0.529311 0.109644 -1.35189 0.315547 
0.500969 -1.4062 0.400729 0.175044 -1.37138 0.0534213 0.310247 -1.40789 -0.168351 
0.29257 -1.41419 0.0897257 0.209838 -1.4094 -0.0930692 0.355242 -1.34887 0.469563 
0.316735 -1.32228 0.415514 0.291497 -1.40986 0.249617 0.713835 -1.35034 0.518634 
0.2072 -1.35181 0.332001 0.411044 -1.35008 0.349656 0.453629 -1.34855 -0.224235 
0.383536 -1.35579 -0.218953 0.0654894 -1.35875 0.109055 0.455355 -1.40706 -0.173035 
0.243248 -1.3527 0.267291 0.263647 -1.35817 0.128561 0.420578 -1.3538 0.450579 
0.336717 -1.32093 -0.12228 0.45731 -1.41043 0.0498848 0.624544 -1.2832 -0.377974 
0.523537 -1.29204 -0.290471 0.569914 -1.41475 0.0649322 0.518868 -1.28589 0.489561 
0.648229 -1.41098 0.225383 0.550433 -1.35132 -0.296654 0.456623 -1.41397 0.209145 
0.680607 -1.36145 0.394765 1.07275 -1.29132 -0.269902 0.463008 -1.28391 -0.0797533 
0.428009 -1.34143 -0.0860529 0.501923 -1.32635 0.014904 0.438334 -1.34184 0.0377654 
0.529357 -1.33115 0.355559 0.571482 -1.28972 0.535691 0.942798 -1.25477 0.531367 
[...]
POINT_DATA 1274
FIELD FieldData 10
VELOCITY 3 1274 double
-4.3900425792e-05 -2.5304071105e-05 -4.9380695056e-05 -0.00020334322401 1.5321189793e-05 3.4363505183e-05 -0.00021105619226 -1.6590346064e-05 0.00018885158128 
-2.4602893177e-05 -7.0894923858e-05 0.00010539791716 -9.662398686e-05 -2.9717061393e-05 2.1229275183e-05 -7.7026009172e-05 0.00010144621903 0.00014402117993 
-0.00025566149471 -2.9165108191e-05 1.9356099288e-05 -0.00029891180531 -7.0614783129e-06 -0.00016232457105 -4.1316986533e-05 1.2495889897e-05 -0.00012059574382 
5.3471291709e-05 -7.2997307801e-05 -0.00012587705253 -0.00014473295489 4.2422428844e-05 4.9394236681e-07 -0.00020910724067 -0.00029421285688 -9.921969834e-05 
-7.05281789e-06 -0.00012731546327 8.0524193594e-06 -0.00013812520369 -7.9933648347e-07 -3.6614760093e-05 -6.0743783432e-05 -3.0670512911e-05 2.829479492e-05 
-3.7190068191e-05 4.768959479e-05 -1.8257810359e-05 -3.2107931496e-05 6.1588930943e-05 -5.7958418401e-05 -0.00024580071209 -0.0001083738723 -3.9698192867e-05 
-2.2057448433e-05 -0.00013716343033 -0.00026399839691 -0.00011109036109 0.00010377623213 6.7873295972e-05 0.00026795078164 -9.5452527098e-05 -0.00011130050308 
4.5345941756e-05 -8.1228814937e-05 -0.00021364021351 2.2384639968e-05 -8.9335529968e-06 0.00012208886132 -0.00013388457111 -4.7780061548e-05 0.00016309200997 
-0.00013792457746 -0.00011187089343 0.00022726036114 -0.00013122636235 -3.4246359989e-06 2.0598928454e-05 -4.9951877768e-05 -0.00012683949524 1.809317103e-06 
-0.00029873409174 -9.0534580245e-05 -5.1070363455e-05 -8.7009113786e-05 -6.5299110385e-05 9.3682425145e-05 -0.00035685376165 -5.8276280203e-05 -6.0770354918e-05 
-0.00017941199739 -3.6419785858e-05 0.00020690854459 2.8612187592e-05 6.3241053507e-05 -0.00018045180522 -0.0002781688494 -0.00016406532155 -1.9375432611e-05 
0.00011750263268 -0.00021624326286 -3.0574400487e-05 0.0001612268883 1.2594045692e-05 -9.4269560583e-06 4.9292546833e-05 -0.00020010207123 -8.1678915066e-06 
-0.00012997874098 -0.00017728501514 -0.00017538496147 -9.7143705564e-05 -0.00020438332849 -1.5719645173e-05 -1.4716271334e-05 -0.00014616092769 -7.7218063306e-05 
0.00042527874606 -0.00024579133085 0.00026220968713 -1.086593428e-05 -0.00020882776404 -3.3634485862e-05 -1.1402245476e-05 3.0410318658e-05 2.8559570512e-06 
-0.0001424413719 3.8994815969e-06 -0.00010750771785 0.00010748203205 -4.0414067312e-05 -0.00015646665526 -0.00019966729266 1.1053177065e-05 0.00027823481672 
0.00040660372045 -0.00018842896675 0.00018316987852 -7.4156800768e-05 -0.0001458741705 1.9921344927e-05 -0.00041695990053 -3.0618778114e-05 0.00015529595888 
-0.00019572423334 -4.8393357842e-05 -5.0494205599e-05 -6.8942483326e-05 -8.0922401897e-05 -4.0438883749e-05 7.8553787042e-06 -9.6957441878e-05 -3.0317864228e-05 
8.2558919646e-06 -0.00032615813827 9.4648815735e-05 -0.00015543736083 -5.8769505697e-05 -8.9602128863e-05 -0.00018460003956 8.1344026978e-05 1.46657644e-05 
-8.0033905539e-05 -8.223866532e-05 0.00015811770114 -0.00013752786188 -3.5333169733e-05 -6.9137629845e-05 9.5097282074e-05 -8.3786219195e-06 6.121434694e-05 
8.9283765646e-06 3.0524484911e-07 1.6744469173e-05 -0.00010736466646 7.9528402974e-05 3.70704414e-05 -3.3649515542e-05 -3.0802849019e-05 0.00015247704392 
-8.2982549585e-05 -1.0734918804e-05 0.00010071371729 -0.00020932603395 -0.00014288723758 -2.5170079757e-05 -0.00033468764841 -4.7976577017e-05 -8.2712287018e-06 
1.7107016006e-06 -5.6763182807e-05 8.5685423963e-05 -0.00011484496142 -0.00020162296384 8.2992601452e-05 -0.00011506062007 -0.0001401265871 -3.7655025479e-05 
-0.00023774156879 3.6026193032e-05 1.5415916214e-05 -5.7294216134e-05 4.8723652789e-05 0.00010296610342 -0.00013714182882 5.5876647284e-05 1.668701957e-05 
-0.00010034884584 -2.8285815527e-05 4.4689486198e-05 -0.00015686336366 4.5029021584e-05 0.00014405450733 -0.00015386544837 -2.2055646823e-05 -4.1472084932e-05 
-1.1616475034e-05 -3.4383548908e-05 -2.7107443367e-05 -0.00016857968614 7.3959951647e-05 -1.0444957428e-05 5.4486229391e-05 -0.00013112830116 -0.000188627956 
-0.00010457738833 -1.323933653e-05 0.00010773240511 -0.0001930978057 -9.1205832084e-05 9.1115412688e-05 2.9576080104e-05 -8.9024098902e-06 4.5379799307e-05 
4.5591765413e-05 5.0635359951e-05 0.00014629501091 0.00021854932439 5.3417289111e-05 9.8732701236e-05 -0.00026477613273 1.7333527032e-05 5.6406069203e-05 
-0.00028334493373 -0.00010960183793 -9.6342334145e-05 -0.00025367480064 -0.00014257170867 0.00011822953036 -3.8993473622e-05 -0.00010568322246 3.109495798e-05 
-4.2383135024e-05 -0.00020826088128 -0.0001315435389 -5.485614521e-05 -9.8449132928e-05 -0.00011096440759 0.00023809138176 -0.00018511053377 -9.3925342204e-05 
0.00012631300074 -0.00012594645122 -2.2903051774e-05 8.0399664453e-05 -0.00010035684784 0.00016220806013 0.00013903514703 -0.00018072135428 -5.3626989565e-05 
-0.00021094384788 5.8164133149e-05 -4.0756755958e-05 -9.8896953008e-05 -2.8383256189e-05 -2.8451585163e-05 -0.00012588710268 -8.5306265301e-07 -3.7299223641e-05 
2.5074672123e-05 -0.00031779618879 -0.00021116059422 2.4692931084e-06 5.8185272135e-05 0.00015538661607 -4.7024837282e-05 -0.00024496679953 -0.00024985247926 
-2.3435340567e-05 7.1401172817e-05 -3.0824416558e-05 0.00017733021899 -6.3821713655e-05 0.00015156008077 5.71156433e-05 -1.0542558851e-05 -0.00016637753739 
-9.0262329298e-05 -1.8897739121e-05 -1.4984352951e-05 -0.0003350439884 3.8351770053e-05 3.0658722587e-05 1.9695140356e-05 -5.0663422498e-05 -0.00017910083468 
-0.00025101068008 0.00012226325429 8.0252221598e-05 -6.4042367467e-05 -0.00022608226302 -8.5488027129e-05 -2.6276514246e-05 -4.6869651188e-05 -0.00022897865483 
-5.7164169422e-06 -0.00032182991945 -0.00018417576789 -4.0233141159e-05 1.4714012723e-05 -0.00021428565196 -4.5083956599e-06 -2.0930578108e-05 -0.00016421004085 
-3.2492219762e-05 -0.00026117192865 8.3195298259e-05 -3.2451666636e-05 -1.2003904895e-05 -0.00019860399225 -0.00017282749679 -2.1796515531e-05 1.026468458e-06 
7.3901197838e-05 -5.4077905514e-05 0.00011046409596 -0.00011831330437 -0.00031524909304 7.6102110195e-05 -0.00015376070684 -6.7335239049e-05 2.3079590405e-05 
3.356061191e-06 -4.3740213454e-06 2.4932228196e-05 5.780392282e-05 -0.00013379951022 -0.00019545496252 -6.9624949825e-05 -0.0001321275772 -4.2887486238e-05 
-2.1927332315e-05 2.0607181507e-05 -2.6426133805e-05 -5.9087146049e-05 0.00011444820836 8.1163331702e-06 3.0968445677e-05 -0.00025323005086 -0.00020335010953 
7.1627386593e-05 -0.00036992576201 -0.00020578498114 0.00013360201328 2.8731563809e-05 -0.00022331125807 -0.00023789232054 -2.755397721e-05 -4.5283833534e-05 
-0.00017261388149 -0.0001013381286 0.00011500784607 -0.00015167258119 1.2800148159e-05 4.4116358183e-05 -9.5622391871e-05 -1.5002674149e-05 -0.00014299241963 
-2.1395837242e-05 -5.4407254482e-05 -0.00013098760588 5.3614530828e-05 -7.0538751892e-05 -0.00016869070847 -0.00032203834519 -0.00021073273352 0.0003644105114 
-0.00037961511456 -0.00017957945607 5.9349620495e-06 0.00011756888804 -0.00028310370402 -0.00024685107811 -0.00011446240928 8.0176222868e-05 -0.00011181964317 
-0.00014939697676 -0.00014224860648 -8.0402561149e-05 2.1577768628e-05 -1.6255066085e-05 -3.3505975021e-05 -0.00033571543086 -0.00017501779317 -0.00038316741347 
-8.3639412823e-05 -0.00021977998233 4.8932565787e-05 -1.4106882495e-05 -1.4968976218e-05 2.3845450562e-05 1.299828369e-05 0.00011685153593 -0.00013823089884 
0.00012175078244 1.5777792273e-06 -1.9178928349e-06 -2.8415787518e-05 8.9238752056e-05 0.00023168744191 -4.0864199469e-05 -6.5232761267e-05 -3.5422562215e-05 
-7.9892957241e-06 2.7240177715e-05 -0.00013582694398 4.4931704565e-05 -1.2457042231e-05 4.1436196936e-06 -0.00021480210986 6.0020712636e-05 -3.3599254634e-05 
-1.8505210401e-05 1.3273298642e-05 -1.8367932507e-05 1.1384328993e-05 4.2083320978e-05 -5.4488278011e-05 -5.2807066344e-05 -4.2538254134e-05 -5.114128027e-06 
6.6402741248e-05 -2.7928567153e-05 4.4848557847e-05 -3.0232109582e-05 -2.0595404807e-06 1.061073625e-05 -4.3844888571e-05 -8.167129848e-06 -0.00013242518593 
-4.4046600011e-05 -0.00014614950969 3.2068807554e-07 -2.4122726817e-06 6.2546935623e-06 -3.2132520607e-05 -0.00024510002999 -1.6608636009e-05 -1.8026795922e-05 
-0.00012199968277 0.00017207994618 0.00012436137062 -9.77128131e-05 3.8090436613e-05 -4.2453106934e-05 -0.00010242100109 -8.9692454906e-05 -5.7238808768e-05 
-0.00013018436148 -2.9076660703e-05 -4.2865072556e-06 -0.00018129009965 -7.2792489838e-06 6.3693699081e-05 5.0324815555e-05 -2.3372965186e-05 -1.1262166838e-06 
-4.215473062e-05 1.5446609534e-05 -8.6776027587e-05 -0.00016104811081 -4.531038455e-05 -2.8950842009e-05 9.1578507089e-05 -0.00026625923811 -0.00035125220379 
-0.00011026971267 -2.7330228696e-06 0.00015230337558 0.00017605691567 -0.00012107716586 -5.0146856492e-05 -0.00013575831472 -2.0451016652e-05 4.1080154977e-06 
-8.3006402874e-05 5.0922251023e-05 1.2169821186e-09 -0.00011250609056 5.212893105e-05 0.00012546553165 -0.00015136593915 -6.0288844412e-05 4.3832498951e-05 
-1.3180296981e-05 -5.4128482208e-05 -1.6227879836e-05 -8.0922091023e-05 6.2785111838e-06 5.9193402729e-05 -5.7229781243e-05 -5.8511530082e-05 -5.2663877113e-06 
-7.1950862905e-05 8.4422565039e-05 -1.6091952338e-05 -0.0002230990857 0.00012056948091 0.0002302451052 -0.00032150771135 7.7232134712e-05 -0.00011408118673 
-0.00012921399928 -3.8662111304e-06 2.4139759498e-05 -0.03398187483 -0.0083231721857 -3.0623278e-06 -0.00012947487369 2.1754446752e-05 5.0285578841e-06 
0.00024201252616 -0.00017402059257 0.00018413789675 -0.00020025807467 -1.3892143209e-05 -1.4398369946e-05 -0.00010215897875 -9.4368805984e-05 3.3976028411e-05 
-0.00011304436024 4.5069895735e-06 -0.00010625004735 -0.00010461519529 -1.3514873161e-05 3.8003396638e-05 -0.00016750941981 -4.9703272083e-05 -8.8670357886e-05 
-2.3647614603e-05 -0.00020739265344 2.1766374677e-05 5.2012267588e-05 -0.0001183799701 2.3614815016e-05 4.490170739e-05 5.3808824732e-05 6.7042502945e-05 
-5.0880816227e-05 0.00015572734868 4.9168099005e-05 -4.0117775517e-06 -4.4672838091e-05 1.767123468e-05 0.0003657659789 -0.00033977496339 -0.00014771307406 
-2.9177393274e-06 4.6319593492e-06 4.9093340772e-06 3.0808637559e-05 -3.3098314702e-05 0.00014733069166 -0.014326477101 -0.016829676401 -0.062797212997 
-4.8319700804e-05 -7.0424518712e-05 -0.00016888094984 -9.541018162e-05 -3.194934254e-05 -5.2162791306e-05 7.3490664379e-05 -2.7610498378e-05 -0.00020076161882 
-3.1007319004e-05 -6.073831579e-05 -7.1158342795e-05 -0.00026664519905 -0.00011581644391 4.2347602119e-05 -1.706554111e-06 -2.5099756182e-05 0.00012141874615 
9.2662778303e-05 3.0753214411e-05 -0.00019526309807 7.7272947827e-05 -0.0001093333632 -8.7840975111e-05 -7.5087939219e-05 -4.461806873e-05 0.00022098284282 
-3.7740954281e-05 -0.00010821007202 -0.00014813707689 -0.00032887740459 -0.00068071544048 -0.00060181531423 -9.7084510431e-05 -9.7950832316e-06 0.00014131442457 
4.25126834e-05 -0.00012080242573 -2.1603708014e-05 -0.00012249828234 -5.0752244218e-06 7.240106768e-06 -0.00028897945855 -0.00025253243846 -0.0003820936204 
-2.4208007303e-06 6.0313710387e-05 -0.00020188636573 -5.6088115503e-05 -8.2871271484e-05 6.1191224678e-05 0.00010207637166 0.00013415303125 0.00012508568969 
2.9536191591e-05 -0.00018134000473 -0.00026783546509 -3.6454367759e-05 -0.00014143933372 4.0739293465e-05 -9.1269511464e-05 -0.00015167418645 -0.00017547822467 
-0.00019489836387 -0.00063868511899 -0.00026251801045 -0.00016654426919 0.00019345753916 -9.3604261351e-05 -6.6573367303e-06 2.2195900042e-05 -8.5267217454e-06 
1.3447277538e-05 -1.6939807367e-05 -7.2932588311e-05 -7.0756511712e-05 -7.6874988188e-06 -2.2538220565e-05 3.0392280919e-05 -0.00024567191583 0.00018046413413 
4.2881710999e-05 -0.00015669502708 -7.4641579614e-05 -3.1034808618e-05 -6.8193827566e-05 3.4587876042e-06 1.9578128835e-05 1.2554604516e-05 6.2226358327e-05 
-6.0490439785e-06 5.080199956e-05 -0.00016959835999 -9.9933918655e-05 -2.0702931357e-06 5.8463317061e-06 -0.00029158761147 0.00018863538491 -0.00019227578127 
-9.2784341204e-05 -2.1420051406e-05 2.5746760241e-05 -4.1421576362e-05 2.8629371118e-05 -2.4945841122e-05 -2.43525556e-05 -6.5381006906e-06 -3.0914331403e-05 
-3.0754840113e-05 -4.1635037108e-05 6.341162828e-05 -0.00061799765894 7.3975390772e-12 0.00080473983806 -0.00016167459963 3.528260694e-05 1.6755966416e-05 
-7.5493493132e-05 -3.7266244866e-05 -4.6512354243e-05 -5.1062408624e-05 0.00015439689986 -8.1385809015e-05 -0.00011875992295 1.8037614833e-05 -1.0199330744e-05 
-0.00013507243875 2.3265637111e-05 -7.1347374776e-05 0.00010950679323 -0.00020243126239 0.00011902247501 9.2649579881e-05 4.8222672932e-05 5.4381474717e-05 
-8.818450377e-05 -5.6078973275e-05 2.6627955766e-05 -2.0965101443e-05 2.0994703257e-05 0.00013299643313 -0.00012843657218 4.3130521866e-05 5.5965131372e-05 
-0.00030962048049 -3.0390557957e-05 3.4505986134e-05 -0.00013351653601 -0.00011346174442 -1.3948387828e-05 -0.00015193571477 1.1811591309e-05 -2.242889428e-05 
-0.00016477461142 4.194677127e-05 2.899095792e-05 1.5846881304e-06 -2.341056914e-05 -0.00019107490787 1.9416539294e-06 -0.00014392245035 2.8454884404e-05 
0.0001535780613 -4.5974440823e-05 -3.8403708381e-05 3.8170351126e-05 -4.26751537e-06 8.0927847801e-05 0.00014991653381 2.1989635026e-05 0.00032945133247 
3.1309672985e-06 -5.0128398339e-05 1.663760201e-05 -0.00018166646441 -7.7065820557e-05 -8.2089290896e-05 -0.00012749400953 -7.9609604794e-05 2.5561004828e-05 
-9.5184416159e-05 -3.5790753166e-05 1.1788260377e-05 -0.00017745101835 -3.865914581e-05 -1.9249379867e-05 0.00015142372481 -0.00022925051455 -9.8971063048e-05 
-6.392643161e-05 1.205822737e-05 -1.4501328519e-05 4.2958005174e-05 -0.00011952065337 0.00022692095666 -0.00012384783843 -2.0479847514e-05 -3.3913134833e-05 
-8.77605989e-05 2.9271897217e-05 3.3256158798e-05 -6.1129854303e-05 -2.274146882e-05 4.1419531287e-05 -0.00012235410677 -0.00014614838832 5.2090577643e-05 
1.4948988459e-05 -2.9060048738e-05 -5.1397017156e-05 0.000107680453 -0.00025673060062 -6.2089333477e-05 -1.4602714526e-05 -5.2707287254e-05 7.3003335973e-05 
-0.00021544998679 -1.2912602471e-05 6.1817071896e-05 -0.00023014468491 4.4829048055e-06 -5.8385614957e-06 -3.0930241217e-05 -6.4465872125e-06 9.3083536938e-05 
-3.1565726663e-05 -7.5831062453e-05 -0.00017042580134 -4.0584604414e-05 -0.00010901890397 0.0001335789371 -0.00017803664131 -6.3463592171e-05 -2.5604344021e-07 
-0.00013668118756 -0.00027029772434 -1.2474185906e-05 9.2810021249e-05 2.5523644043e-05 4.8260903637e-05 5.1344852935e-05 -0.00017275937715 -0.00016680543991 
6.7252343055e-05 -0.00013720168339 -0.00010664704346 2.9750660196e-05 -0.00016115378385 -0.00036867812978 -0.00014606336133 -6.5168055728e-05 0.00016029159428 
7.5483099978e-05 3.9967251189e-05 -1.6726311277e-05 -0.00033298057506 -1.5450295007e-06 6.9924340357e-05 -1.1389668557e-05 8.4384761076e-07 3.1639764143e-05 
0.00014750898374 -6.2331913525e-05 4.3970034227e-05 0.00012742869346 -2.0560347144e-05 -4.4545952653e-05 -0.00032008097612 1.1566239895e-05 -6.8322897038e-05 
0.00011212806401 -0.00018343212386 -0.00014366948174 -0.00011167366749 -1.4964838845e-05 2.4207980222e-05 -6.7730312392e-05 -0.00025017364342 -0.00025780069512 
2.482035705e-06 -9.9384518031e-05 -2.5877926808e-05 0.00013947658629 -0.00015878518528 8.2208866875e-05 -0.0001664372165 -4.882247584e-05 0.00025457376479 
-0.0001617580891 -0.0001178795883 -0.00020874233071 3.6194902102e-05 0.00011762191367 -0.00011932644799 -2.6650840996e-05 1.6559509761e-05 0.00016243729911 
0.0002729188329 -0.00022958998403 3.0335807682e-05 5.5874072934e-05 -8.865580385e-05 0.00021298766343 -0.00041821939307 -4.7518521724e-05 -0.00026868316417 
-0.00013534279599 -3.446445982e-05 9.250031147e-05 -5.4569660532e-05 0.00011159925334 4.4843734162e-06 -0.00027044896929 -0.00022048720758 -0.00037524285617 
8.2063899641e-06 -3.8440218638e-05 -0.00019419613016 -0.00013495385138 0.00017469509804 -7.4173778608e-05 -1.3725489254e-05 -7.7388118448e-06 2.4477686718e-06 
-5.3744686453e-05 3.5150294577e-12 0.00021754223253 -0.00019021357175 8.731531738e-05 -3.8716359947e-05 0.00011592173142 2.3120795831e-05 0.0003954697508 
6.2889786361e-05 3.2350593116e-05 -8.1847644207e-05 -2.3856061634e-05 4.6919742544e-05 -9.6361840909e-06 8.4353352915e-05 1.7720201751e-05 -1.476738338e-05 
-2.3410555285e-05 -2.8571154966e-06 -9.6440194999e-05 -4.8024254235e-05 -1.5697853757e-05 -1.4215161435e-05 -0.00027470084896 -2.3123047817e-05 -8.7304736513e-05 
2.7917252069e-05 6.9314883858e-06 0.00014331830452 6.9829690681e-05 2.3649316803e-05 -2.4316660217e-07 -0.00019486811864 -5.6116130044e-06 0.00025264907115 
-0.00014251198343 -2.8014941066e-05 6.2083696488e-05 1.2593293688e-05 -7.8366175486e-05 -2.8450482331e-05 -2.6169865575e-05 0.0001299548162 -2.6710802298e-06 
-0.00012812969369 -1.6133470086e-06 -2.3909645682e-05 1.1663663688e-05 7.8661899023e-06 -4.5366469105e-05 -0.00011898598655 2.4014469391e-12 -0.00011503410502 
7.940048503e-06 4.1244048397e-05 -2.7393648878e-05 -7.8887046922e-05 -2.6199960851e-06 -1.6393352248e-05 -3.413461429e-05 4.8295229102e-05 0.00010467512454 
5.197742076e-05 -4.2062593752e-06 -0.00024056317363 -1.9839198492e-05 -5.2146678016e-05 -0.00013070412553 6.2710702564e-06 6.8503341176e-06 5.6086345918e-06 
7.5015818849e-05 -1.9346958814e-05 -1.8419889744e-05 -4.6895286371e-05 -0.00019910293324 1.2325153128e-05 -0.00018710363129 -2.39838691e-05 8.7129518019e-05 
-7.2553102943e-05 3.0947951998e-05 2.1741188706e-05 -7.8717673966e-05 -1.6686634397e-05 7.1803085195e-05 5.3477569076e-05 4.3788723554e-05 0.0001258650864 
-0.00010550887766 -3.7233898178e-05 2.0674254838e-05 -0.00026843955479 -2.708144821e-05 -1.0305516532e-05 -6.8468470817e-06 6.2621700157e-07 4.1193489881e-05 
-0.00013676839095 1.0477911598e-05 -0.00013314229256 -8.3409534741e-05 2.328308245e-05 -6.7430509195e-05 -3.4693762657e-05 -3.9690866319e-05 -5.6488183093e-05 
-0.00015443597076 5.0220337035e-05 -1.2082720555e-05 -4.4497391244e-05 -8.4559418161e-06 6.3051427083e-06 -0.00018518345921 -7.7909974593e-05 0.00010350785768 
-5.2033301222e-05 1.1958424208e-05 2.639514843e-05 -0.00016342767794 -0.00015424617747 0.00017639859089 -0.036734739596 -0.025992441863 -0.046179316413 
-0.00017701315066 -1.1538465558e-05 -1.9005581015e-05 6.8543188313e-05 -2.4018861848e-05 -6.7372602698e-05 -0.00031866497961 -1.4323780165e-05 0.0001537239569 
-0.00029790879372 5.9548831658e-05 8.8001706574e-05 -7.6735603666e-05 0.00013388482663 -0.00015365531191 -4.317586295e-05 -4.7421517196e-05 -5.6718059101e-05 
-0.00016178749755 5.3602724712e-05 7.3531205786e-05 -0.00013399757271 -0.00015548239085 6.3061012265e-05 -0.00023672277931 8.5786479531e-05 -8.8216300021e-06 
-0.00023350517368 3.956458915e-05 0.0001597652814 -3.2629824179e-05 2.5098608717e-05 -4.0819736681e-05 -2.5603239929e-05 2.3422846509e-05 -1.9527787083e-05 
-0.00020034496449 -0.00027610372904 -3.2120121043e-06 -0.00011798774075 -5.7654926466e-05 4.9791238228e-05 -2.8259387817e-05 -0.00014719413934 -1.5946021693e-05 
-7.5341112251e-05 3.0854349371e-06 2.1226149002e-05 -0.00023307940856 -0.00014864236887 -3.8743444251e-05 4.0025134849e-08 1.0281942291e-05 -5.9892973336e-05 
7.1627284502e-05 -0.00014051053925 -0.00029374064707 -0.00023344979462 -0.00019598995907 -0.00027892085926 -0.00015720685656 -8.7062695766e-05 1.032543633e-05 
-1.5894773634e-05 3.2308841088e-05 -9.6944055501e-05 -0.00011126941305 1.8831006452e-12 4.9845776732e-05 5.6679444681e-05 -2.7365659165e-05 -0.00021483017306 
-5.9114297503e-05 0.0001681066309 -4.4249287541e-05 -0.00040791560988 -0.00015903440917 0.00010819515646 4.2216804986e-06 4.1498845528e-05 -0.00011626234112 
-6.9370444767e-05 -3.9570559599e-05 0.00018145275789 -1.6613259264e-05 -5.457143003e-05 -5.673320181e-06 -0.00010533214605 -6.9988231854e-05 -1.0881267166e-06 
0.00017350591417 4.7098184698e-05 -8.6098014118e-05 2.7152221812e-05 6.6141610197e-05 -7.657795418e-05 -0.00011043176432 -5.2308126997e-06 -5.5524346206e-05 