# vtk DataFile Version 4.1
vtk output
ASCII
DATASET UNSTRUCTURED_GRID
POINTS 1274 float
0.273718 -1.29442 -0.0532077 0.273993 -1.30223 0.0958477 0.279878 -1.29499 0.316578 
0.157864 -1.31613 -0.211102 0.298426 -1.29136 0.178018 0.411671 -1.23462 -0.067142 
0.381675 -1.29106 0.322065 0.470404 -1.2355 0.493192 0.512202 -1.24371 -0.00783696 
0.637048 -1.25331 -0.00547099 0.539005 -1.34676 0.187606 0.64153 -1.22252 0.434143 
0.852409 -1.27248 -0.15124 0.843588 -1.25446 -0.0829227 0.65781 -1.29621 0.15806 
0.755466 -1.27581 0.265942 0.696163 -1.27019 0.218833 0.794103 -1.20781 -0.0448197 
0.637106 -1.20736 -0.0558441 0.672418 -1.34643 0.00775274 0.715077 -1.19061 -0.0820881 
0.690739 -1.30812 0.278299 0.397875 -1.23086 0.290103 0.615367 -1.27205 0.224714 
0.912933 -1.23656 -0.0767286 0.324607 -1.23783 0.153527 0.657569 -1.2077 0.363493 
0.814345 -1.19489 -0.113106 0.921335 -1.3139 -0.000395672 0.82332 -1.22925 0.038038 
0.971874 -1.20851 -0.0152465 0.656916 -1.22813 0.046869 0.557799 -1.21879 0.378439 
1.08232 -1.22268 -0.287818 1.03348 -1.24154 -0.14157 0.503932 -1.22119 0.280652 
0.790003 -1.27868 -0.0124957 0.634984 -1.27368 0.285615 0.405274 -1.25061 0.137862 
0.95224 -1.20229 0.0590411 0.851395 -1.2266 -0.208437 0.798189 -1.23315 0.160125 
0.838315 -1.21211 0.108891 0.748255 -1.22084 0.216237 0.903544 -1.24342 -0.00561372 
0.984767 -1.23799 -0.236701 0.891823 -1.25226 0.291466 0.887073 -1.21787 0.230066 
0.452391 -1.29924 -0.306642 0.167866 -1.33252 0.280787 0.145232 -1.3588 -0.0654429 
0.0370367 -1.33446 0.17357 0.286523 -1.34239 0.471689 0.25591 -1.33818 0.384961 
0.239797 -1.31309 0.164474 0.379739 -1.35336 0.285159 0.151234 -1.34827 -0.274767 
0.359419 -1.41001 0.0556274 0.611941 -1.28941 -0.213279 0.217825 -1.35345 -0.222242 
0.399619 -1.34728 -0.151428 0.37172 -1.35511 0.404566 0.39949 -1.293 0.394613 
0.278212 -1.3483 0.208889 0.21352 -1.33809 0.00535925 0.48524 -1.26605 -0.187214 
0.41346 -1.36082 -0.0237589 0.583499 -1.34512 0.299824 0.433342 -1.28269 -0.142608 
0.304279 -1.28411 0.242978 0.552717 -1.36029 -0.019602 0.376864 -1.27369 0.194477 
0.33143 -1.29837 0.0617704 0.330678 -1.262 0.44552 0.508628 -1.22739 -0.0832644 
0.623663 -1.4128 0.0998702 0.544663 -1.25082 -0.240525 0.212436 -1.28183 -0.175363 
0.568418 -1.35604 0.0413921 0.541269 -1.30136 -0.0341096 0.328487 -1.26195 0.297431 
0.451594 -1.28834 0.450361 0.579854 -1.33501 0.469906 0.446588 -1.28088 0.264184 
0.511129 -1.29932 0.291114 0.452032 -1.36108 0.112158 0.615513 -1.30354 -0.0476055 
0.643707 -1.22722 -0.214039 0.972606 -1.28504 -0.28467 0.570365 -1.28616 0.172299 
0.475389 -1.28641 -0.250533 0.764647 -1.28926 0.343897 0.645627 -1.32729 0.220632 
0.577094 -1.23848 -0.0536145 0.999471 -1.26677 -0.0445447 0.741784 -1.25441 -0.0607629 
0.684786 -1.29049 0.0494762 0.876358 -1.34914 0.161868 0.603145 -1.25477 0.0799432 
0.780342 -1.23224 0.388026 0.791212 -1.24175 0.464713 0.545537 -1.26307 0.23295 
0.826129 -1.35948 0.207843 0.622039 -1.22489 -0.144752 0.687866 -1.23252 -0.0329659 
0.553126 -1.24049 0.123877 0.732434 -1.23676 0.0213624 0.808471 -1.30047 0.178072 
0.828933 -1.25012 0.340597 0.68123 -1.26708 0.329891 0.809385 -1.22661 0.532538 
0.912553 -1.24722 -0.369301 0.769692 -1.30964 0.048936 0.437839 -1.25595 0.192598 
0.723874 -1.22675 0.535002 1.16348 -1.22108 0.0119238 0.628976 -1.26624 0.530084 
0.734238 -1.2257 0.317733 0.705129 -1.24503 0.415366 0.578982 -1.24317 0.0155778 
0.958611 -1.29245 0.219528 1.10564 -1.23872 -0.166974 0.839077 -1.30528 0.044225 
0.977045 -1.22591 -0.0923764 0.908424 -1.28982 0.0617119 0.616323 -1.23669 0.147577 
1.3216 -1.19717 0.526377 0.738739 -1.25627 0.161222 0.940468 -1.22517 0.19354 
0.952611 -1.20818 0.422992 1.21186 -1.26334 -0.182633 0.905161 -1.23214 0.0977934 
1.04521 -1.22575 -0.00797941 0.863802 -1.23338 0.171978 1.10076 -1.25813 -0.0319874 
0.96341 -1.26277 0.0317621 0.0867082 -1.41341 -0.246573 0.2859 -1.36074 -0.213008 
0.430056 -1.40919 -0.397639 0.0351685 -1.35959 0.315305 0.213253 -1.32111 0.482534 
0.0966951 -1.40799 0.156721 0.216624 -1.34414 -0.402017 0.500679 -1.31858 -0.348218 
0.0870952 -1.35984 -0.381475 0.493769 -1.34763 0.459813 0.251051 -1.27896 0.529061 
0.147072 -1.35435 0.379394 0.241105 -1.41179 0.297703 0.0966973 -1.35817 -0.0124992 
0.276985 -1.31998 -0.156653 0.0801054 -1.35883 -0.288941 0.472459 -1.35385 0.309887 
0.348666 -1.40768 -0.0292844 0.129636 -1.3435 0.23058 0.21331 -1.33456 0.098182 
0.219684 -1.29564 0.291405 0.320914 -1.29136 -0.295099 0.270964 -1.34801 0.0403969 
0.422573 -1.31834 0.166192 0.0826826 -1.29261 0.215281 0.515553 -1.30037 0.419333 
0.893323 -1.30016 0.533049 0.546811 -1.35548 0.420435 0.240914 -1.29488 0.22865 
0.318241 -1.35521 0.156955 0.318861 -1.35429 0.0925944 0.367334 -1.28839 -0.232394 
0.520223 -1.33277 -0.241334 0.492754 -1.2928 0.203964 0.548583 -1.2258 0.527673 
0.644668 -1.2874 0.408265 0.777051 -1.3409 0.46179 0.423904 -1.3443 0.22901 
0.676975 -1.41468 0.136485 0.594875 -1.22169 -0.399396 0.601275 -1.35847 0.188491 
0.854003 -1.22683 -0.316469 0.391319 -1.29513 -0.298428 0.828502 -1.2996 0.283803 
0.759227 -1.2896 0.419845 0.332879 -1.28445 -0.172136 0.571409 -1.27624 0.288815 
0.670143 -1.27235 -0.166635 0.490103 -1.24953 0.145376 0.879394 -1.29194 0.214176 
0.970456 -1.38761 0.0885759 0.535671 -1.28032 0.0564335 0.994738 -1.25491 0.444024 
0.648782 -1.33022 0.341045 0.941748 -1.29602 -0.0632828 0.675467 -1.20728 -0.270294 
0.725753 -1.22892 -0.144983 0.791384 -1.30414 -0.0806628 0.820801 -1.34979 -0.0452413 
0.739879 -1.31812 0.178371 0.70307 -1.3549 0.138558 0.859752 -1.29913 -0.0262736 
1.00877 -1.24925 0.0867845 1.06205 -1.27476 0.0387011 0.912366 -1.25097 -0.140411 
0.7869 -1.2887 0.11507 1.10927 -1.28408 0.394774 1.0043 -1.24675 0.188783 
0.818521 -1.24323 0.229007 0.698829 -1.25836 0.110971 0.931774 -1.36126 0.216773 
0.857255 -1.28511 0.119007 1.19592 -1.36088 0.117125 0.94736 -1.35392 0.143537 
1.12379 -1.25883 -0.0978158 1.02652 -1.26067 0.275254 0.763337 -1.22426 0.0951699 
0.993215 -1.35363 0.196657 0.297595 -1.4153 -0.358817 0.199563 -1.3722 -0.327208 
0.0322036 -1.4135 -0.0344978 0.441433 -1.28068 0.531353 0.0339857 -1.41171 0.191272 
0.0879807 -1.32418 -0.106973 0.340241 -1.30683 -0.394473 0.0369043 -1.36218 0.0211556 
0.0326481 -1.3453 0.48846 0.346567 -1.40639 0.198481 0.151875 -1.41314 0.444434 
0.324022 -1.34688 0.532516 0.0881712 -1.39523 0.227229 0.326674 -1.35881 -0.265358 
0.218212 -1.35063 -0.129207 0.248873 -1.41429 -0.202403 0.125076 -1.33766 0.152926 
0.311997 -1.29146 0.502081 0.0915488 -1.3374 -0.219722 1.00561 -1.41418 0.472945 
0.234238 -1.40735 0.202628 0.2182 -1.34146 -0.0604237 0.403486 -1.35848 -0.282326 
0.151024 -1.32347 -0.00109188 0.582378 -1.41374 0.215221 0.469127 -1.4131 0.144576 
0.452659 -1.28902 0.340983 0.274103 -1.35688 0.322716 0.194533 -1.36249 0.157666 
0.311715 -1.34571 0.270355 0.802297 -1.4127 -0.226603 0.190332 -1.38798 0.264681 
0.356522 -1.34232 -0.0620716 0.161662 -1.30571 -0.120851 0.394461 -1.41526 -0.141561 
0.293167 -1.3542 -0.0873827 0.465644 -1.33976 0.39613 0.479342 -1.25483 0.39487 
0.297966 -1.35987 -0.0221776 0.358737 -1.34947 0.0162124 0.800708 -1.29735 -0.212141 
0.379064 -1.36167 0.155159 0.336273 -1.3453 -0.179528 0.352787 -1.29993 0.132037 
0.377698 -1.29362 0.256133 0.347557 -1.33268 0.211569 0.526229 -1.23563 0.43658 
0.447884 -1.29509 0.108949 0.734748 -1.25893 -0.21028 1.05808 -1.36696 -0.147726 
0.310531 -1.30422 0.0039094 0.444151 -1.30493 -0.0197594 0.836455 -1.41477 -0.14071 
0.613577 -1.36223 -0.0114104 0.650111 -1.36312 0.275105 0.501767 -1.35065 0.244407 
0.518548 -1.26039 0.345262 1.14793 -1.36801 0.380328 0.628688 -1.36867 -0.0744219 
1.12042 -1.28362 -0.21914 0.725156 -1.29655 -0.116087 0.853804 -1.32459 -0.107804 
0.687043 -1.36357 -0.0515182 0.746631 -1.34151 -0.00647777 0.897941 -1.35459 -0.0556207 
1.04985 -1.23599 0.467529 0.635957 -1.31487 0.092401 0.84131 -1.41501 0.254276 
0.652596 -1.25774 -0.0944071 0.8956 -1.35377 0.0896523 1.0983 -1.3188 -0.000789716 
1.01075 -1.31098 0.00851332 0.813283 -1.3706 0.0465936 0.753653 -1.33949 0.101776 
0.695869 -1.29813 -0.0350009 1.05062 -1.34984 0.155069 0.854856 -1.41217 0.0911263 
1.18038 -1.23127 0.410167 0.994473 -1.28988 -0.106321 1.09776 -1.40835 0.173097 
0.963379 -1.37552 -0.0367969 0.97161 -1.31638 0.0849773 0.859567 -1.20912 0.455459 
0.0341697 -1.37744 -0.227539 0.0314946 -1.41421 -0.173196 0.0354919 -1.41021 0.467903 
0.0724738 -1.41424 0.307526 0.0840018 -1.37153 0.528368 0.0999081 -1.41553 0.479492 
0.0769376 -1.41064 -0.339111 0.16693 -1.39484 -0.39495 0.384418 -1.36054 -0.403686 
0.033625 -1.41208 -0.285817 0.0514641 -1.41294 0.0665896 0.264963 -1.4091 0.470977 
0.0356138 -1.41055 0.363752 0.240052 -1.4087 0.370344 0.142897 -1.41182 0.528266 
0.301692 -1.35416 -0.332212 0.142873 -1.41429 -0.331474 0.145816 -1.41471 -0.26914 
0.64052 -1.41013 -0.320274 0.424288 -1.41293 -0.237076 0.115979 -1.41367 0.0606435 
0.0974698 -1.34396 0.422136 0.392167 -1.33181 0.529311 0.109641 -1.3519 0.315431 
0.501004 -1.4062 0.400822 0.175082 -1.37134 0.053565 0.310238 -1.40789 -0.168348 
0.292563 -1.41419 0.0897219 0.20989 -1.40918 -0.093097 0.355408 -1.34882 0.469491 
0.316792 -1.32233 0.415522 0.2916 -1.40986 0.249618 0.713807 -1.35036 0.518556 
0.207357 -1.35184 0.33189 0.411292 -1.35004 0.349648 0.453587 -1.34854 -0.224251 
0.383491 -1.35576 -0.218988 0.0655511 -1.35877 0.109103 0.455389 -1.40706 -0.173068 
0.243374 -1.35268 0.267284 0.263763 -1.35818 0.128534 0.420742 -1.35372 0.450494 
0.336685 -1.32086 -0.122258 0.457399 -1.41043 0.0498004 0.629263 -1.28031 -0.37215 
0.523751 -1.29204 -0.290493 0.569953 -1.41475 0.0649051 0.51922 -1.28587 0.489369 
0.648226 -1.41098 0.225339 0.550465 -1.35141 -0.296491 0.456646 -1.41397 0.209191 
0.680663 -1.36145 0.394724 1.07282 -1.2912 -0.269981 0.46315 -1.28397 -0.0797556 
0.42815 -1.34147 -0.0861832 0.501949 -1.3264 0.0149599 0.438348 -1.34184 0.0378303 
0.529547 -1.33089 0.355543 0.571547 -1.28965 0.535691 0.942801 -1.25461 0.531367 
[...]
POINT_DATA 1274
FIELD FieldData 10
VELOCITY 3 1274 double
-7.9884970473e-05 4.5320704607e-05 -0.00016760908267 1.0464096697e-05 -3.6089286679e-06 6.7000485465e-05 -8.9885706767e-05 -4.3525697896e-05 0.00016753588773 
-4.8465400097e-05 0.00011099053118 -4.398041407e-05 -8.0303801141e-05 -8.8470013044e-05 -2.2106663624e-05 -0.00022181248126 2.8906649476e-05 -4.7626255161e-05 
-0.00024986676686 8.6210132478e-05 1.3433809915e-05 -0.00033810803725 2.0359140542e-05 -0.00017091458098 -0.00016683811535 7.8438414885e-05 -0.00028786407345 
-7.7157040938e-05 -3.466648502e-05 -0.00028103098457 -0.00020130503351 1.1681435197e-05 -0.00017369591457 -6.4385955825e-05 0.0005664123607 0.0015870721484 
-5.3838556277e-05 -8.9477731447e-05 2.0042778986e-05 -0.00015639739273 3.9769573946e-05 -4.7801042455e-05 -0.00019642507241 -0.00061862801045 -0.0001208459035 
-0.00010278475125 -0.00012303867489 -0.00030924695304 -0.00038319403434 -0.00037123251128 -0.00013009110069 -0.00036636276768 -0.00011829564388 -0.00010939502344 
-8.2760272507e-05 -0.00033566086242 -0.00010313762245 -0.00011526934176 2.4568283704e-05 4.8353987525e-05 -5.5212919891e-05 -0.00010934305571 -0.00015557856851 
-4.5764538359e-05 -0.00013967277491 -0.00014702401392 -0.076553561385 -0.027469356205 -0.090581914463 -0.00031921080718 -0.0001120881713 2.2985882068e-05 
-0.00014830377945 -3.8361542622e-05 0.00031302919851 -0.019449449929 -0.00097606232055 -0.022696721862 0.00016642369993 -0.00088591662384 0.0013463391326 
-0.00030756301464 -3.4696739374e-05 -8.2263472601e-05 -0.00018587133968 -6.5983579319e-05 0.00019578110586 -0.0010631221904 -0.00021274231158 0.00033766984253 
-0.00023190801633 -8.6516233855e-05 0.00035400048107 -6.9921153694e-05 0.00010005753126 -0.00031443738599 -0.00038436336385 -0.00013136215954 -0.00010562552957 
2.2544986233e-05 -0.00018888723803 -8.3059513746e-05 0.00022659646143 2.717757434e-05 2.2932278828e-05 -5.1017461155e-05 -0.00022403585572 3.7141255933e-05 
-0.00024227829143 -0.00017077859056 -0.00031219949245 -0.0001680279903 -0.00034719408303 0.00087983337082 -9.925823073e-05 -0.00010703481817 -0.0002137151475 
-0.064019839951 -0.016663606708 0.010305195914 -6.8594748979e-05 -0.00022122307509 4.503774243e-05 -0.00047733780767 4.9273985903e-05 0.00014348407345 
-0.00041132501495 -0.00011174924828 0.00013877724704 -0.00020231496345 -0.00042113376824 -0.00063291433216 -0.00024380803933 -6.2710174303e-05 0.00047466994859 
0.013715460028 -0.0042068704516 0.00069319897159 -0.00022211175271 5.5221158044e-05 0.00053137486522 -0.00062098592808 0.00011643702123 0.00057984862402 
-0.0001857143672 -0.00015948327259 -0.00040656912993 -4.081301494e-05 -4.1506350844e-05 -2.5654734879e-05 2.0833440951e-05 -0.00011445754698 5.8118656943e-05 
1.3777293827e-05 -0.00031031172858 0.00011849662101 -0.00014679461892 -6.974533094e-05 -0.00013347140549 2.4188566611e-05 -6.2242024627e-05 6.3356097385e-05 
-0.00010971846241 -3.8321461626e-05 -4.6868412318e-05 -0.00017255728836 -5.9901603361e-05 -6.5236781496e-05 0.0009587349761 -1.1211250667e-05 0.00084613162068 
-6.5108677582e-05 1.8117265795e-06 3.5998321128e-05 -0.00029798604277 7.7584911058e-05 4.4272142484e-05 -0.00012309338309 -1.8778549715e-07 0.00021756390132 
-0.00013632308409 -2.9338214625e-06 0.00014935364731 -0.00013077778458 -0.00011540454598 0.00010401467371 -0.00039200154519 -2.480145452e-05 2.7825159754e-05 
-0.00012280313517 -8.8248797233e-06 1.063951444e-06 -0.00013140052819 -0.00022118101919 0.00015041064673 -0.0002469799427 -0.00021688177824 -0.00021883860974 
-0.00028526561298 7.6636410042e-05 8.6267916874e-06 -8.1947565961e-05 8.2150346355e-05 8.1921970669e-05 -0.00015677309827 2.4593646359e-05 -4.0587220283e-05 
-0.00014156841108 -1.280797116e-05 9.2752322252e-06 -0.0001141089922 7.8640527826e-05 0.00023408726764 -0.00024012145983 -2.5692653811e-05 -0.00012676347283 
-0.00010099700971 -8.30356245e-05 -8.8442810737e-05 -0.00010882237016 0.00010363389763 -1.8259365659e-05 -2.4578355694e-05 -7.5872119705e-05 -0.00020134172746 
-0.0011042259022 1.4478560197e-06 -0.0019743421732 -0.00043983586984 -0.00021282680139 4.5638803054e-05 4.6328277996e-05 -0.00011974123025 8.4494419115e-05 
-0.00011658290973 4.2592285103e-05 0.00017592172626 7.3128198192e-05 6.3289237792e-05 3.836214335e-05 -0.00027146750145 0.00011087214241 1.8527528277e-05 
-0.00022299743019 -7.7612933414e-05 -4.2009455473e-05 -0.00028436298549 -8.1978411117e-05 0.00012566006547 -0.00017741364332 -4.1134549241e-05 -3.2941548196e-05 
-0.00013906277194 -0.00012337204811 -0.00022452104641 -4.860351309e-05 -7.7917957065e-05 -0.00019510675191 0.00027781770788 -0.00026166210123 -0.00017500257016 
5.863441893e-05 -0.00013106111038 2.788925975e-05 0.00017523375555 -0.00016234912335 0.0002117788002 -0.00013155487233 -0.00023874566094 -0.00013623562788 
-0.00065559790561 8.8613765949e-05 -0.00028106599703 -0.00038954685514 -7.1765853377e-05 -0.00029540182774 -0.00023132400368 -0.00010837873135 0.00013358793216 
-2.3833329599e-05 -0.00042487540155 -0.00035766416057 2.774520096e-06 3.8932433368e-05 0.00023289669127 -0.00022243546734 -0.00022705001717 -0.00027190547988 
-5.590784007e-05 0.00010935982484 -0.00018250796054 0.0001021642837 -8.7125891336e-05 0.00021989082787 -7.1425323403e-05 0.00013158564514 -0.00029188730314 
5.3077906664e-05 -8.8879441458e-05 -0.00044643209783 -0.0019471442025 -0.00037583189317 -4.5413749592e-05 -0.00013783532513 2.6645301999e-05 -0.00014719976982 
-0.00030915955763 0.00019746052316 0.00016124940558 -5.5435293368e-05 -0.00038640464505 -5.8631604554e-05 2.0446751809e-05 -0.00014697729824 -0.00016643915326 
-7.5826301544e-05 -0.00029760106447 -0.00015024450715 2.2026740711e-05 0.00011779134064 -0.00012033732156 -0.00010063002332 -5.6974413928e-06 -0.00014009494266 
0.0003438442152 -0.00018775164563 -9.2371238389e-05 -9.8443340805e-05 -0.00011841796473 -0.00011419624268 -0.0014290899449 -0.001458206969 1.4600734635e-05 
1.1243933187e-05 -0.00051946662569 -0.0010565122133 -0.0001299604198 -0.00022532263844 -7.2665935075e-05 -0.00025235471704 5.6574584435e-05 -8.490238948e-05 
-1.0394192435e-05 8.9164559874e-05 1.6320339794e-05 7.8621271815e-05 -0.00011012904183 -0.00013612134669 0.00011885900528 -0.00019108127247 -3.3748486915e-07 
-0.00013893373459 -8.3671249586e-05 -0.0002470834001 -0.00079132914678 -1.9804394398e-05 -0.00017125327082 -0.00014061807691 -0.00027567692296 -0.0003263843577 
0.00022729978344 -0.00038300754705 -0.00015532741784 6.0008131107e-05 7.3303758769e-05 -0.00024657283016 -0.00014218040457 -2.7439731689e-05 -2.7594590578e-06 
-0.0001746311247 -0.00018548896098 9.432590601e-05 -0.00023829260221 1.6835209528e-05 0.00010238424008 7.5773032762e-05 -0.00043955100423 -0.00014196263122 
-0.00011645627725 -0.00057270747138 -0.0098463545508 -0.0002436291129 -0.00054417640113 -0.00058744277397 -0.00063958586872 -0.000326229492 0.00062993282282 
-0.00053754636751 -0.00012371074569 1.2963580101e-05 9.856962838e-05 -0.00013793304172 -0.00012434035941 -0.00028993884566 0.00017217277304 -0.00012610784518 
-0.00019575963859 -0.00019173967012 -8.6514822313e-05 0.00046244179603 -0.00034798652332 0.00024447141377 -0.0002864344219 -0.00012567332924 -0.00023316784692 
-2.9640244498e-05 -0.00025164633473 0.00017992145692 3.4174515621e-05 2.5254048437e-05 6.9345626076e-05 -0.00010138609937 -6.9815935087e-05 -2.795895243e-06 
-3.5649805038e-05 -1.4350486099e-07 7.4873527319e-06 1.8371695259e-05 1.9632949622e-05 0.00021487649275 3.7017280525e-05 -0.00013035636399 -3.4709343169e-05 
-0.00010094678064 1.8236071056e-05 -7.6780176095e-05 -2.1616406955e-06 4.1207846672e-05 6.4763566907e-06 0.00025334293269 -9.5563243521e-05 9.2745660404e-07 
-1.4857789534e-05 1.0449449028e-05 -2.6090676713e-05 5.4030689376e-05 3.8459281402e-05 -0.0001281116545 -1.6946658206e-05 -8.5597385096e-05 -1.4692561937e-05 
8.8311473019e-05 2.2747065674e-06 8.931123275e-05 -4.4512359276e-05 -9.2724358634e-06 6.8413186582e-05 -0.00010031347876 -5.030951365e-06 -9.4308197639e-05 
3.9052396115e-05 -0.00015872993398 0.00018524484826 -2.6901697624e-05 1.3620798434e-05 -1.9445819205e-05 -0.00025432544803 1.9147464571e-05 -3.6300198795e-05 
5.2625488861e-05 -0.00013285920071 -9.6274754294e-05 3.7167481832e-05 4.1219530435e-05 -0.00012884149328 -1.3439922033e-05 -0.00023188115843 -0.00012657661634 
-6.7374709685e-05 -2.2124977894e-05 4.0214930217e-05 -0.00013533862847 -2.5998405473e-05 1.4980867178e-05 -2.337878533e-05 1.4624137929e-05 5.893609915e-05 
-9.6026650144e-05 2.2843291466e-05 -0.00010130094397 -0.00017261951897 -3.593145231e-05 4.1690641913e-05 7.9351758721e-05 -0.0002058569687 -0.00035575082011 
-0.00013866699989 -0.00013483926423 -8.1182246905e-05 -1.2474598165e-05 -0.00010626763564 4.9417216992e-05 -9.9948892095e-05 -5.1008195483e-05 3.1159074201e-05 
-9.6075622601e-05 -6.913397493e-05 3.9269253598e-05 5.5474018967e-05 -7.6276407783e-05 -1.2963107842e-05 -7.4186163974e-05 -6.2856134299e-05 -2.6159313169e-05 
6.7682020894e-05 -9.3839888617e-05 -0.00026155616129 -0.00026236869011 3.2120738032e-05 0.00010310004704 0.00016540304718 -2.3858857797e-05 -1.1920686999e-05 
-0.00028501527582 9.0719824406e-05 -0.00015825436044 -0.00028315082173 0.00011823153722 0.00050678845704 -0.00036247425196 6.9216574428e-05 -9.0001967038e-05 
-0.00017218240158 2.6761843483e-05 -0.00012217450475 -1.4134554819e-05 -5.5220506744e-05 4.9492241521e-06 -0.0001800593935 -4.560066792e-05 5.3234426689e-05 
0.00019863214664 -0.00017277394473 0.00015534769468 -0.00017918786562 -1.7659548077e-05 -7.0865872887e-05 -5.9175030832e-05 -8.4592712525e-05 -0.00014392665287 
-0.00069118079941 5.069275584e-05 -0.0010099934713 -9.014575417e-05 1.3773625503e-05 -1.4907089301e-05 -0.0001518501459 -5.7496597207e-05 -0.00030404435724 
-3.8336602454e-05 -0.0003220506222 -6.4183885038e-05 -7.0143239888e-05 -0.00011598917711 -3.9992857902e-05 0.00018660275854 5.3368174536e-05 0.00011597313158 
-4.8145275704e-05 -3.3590294016e-05 7.9501687993e-05 -6.6666330732e-05 5.9261235373e-06 -4.159698748e-05 0.00064343308303 -0.00055820915741 -0.00042284744817 
2.2983953449e-06 -0.00011650544913 -2.4389958926e-05 1.5858527419e-05 1.4527993769e-05 0.00028477486568 -0.00035987300616 -0.0003404422819 -0.00050698253526 
-0.00012904779675 -9.1315337194e-05 -0.00019887852319 -0.00012582309998 2.0024692671e-05 -6.1327565347e-05 5.1792465827e-05 -3.2662455043e-05 -0.00026257912845 
7.9035267957e-05 -0.00055153032004 -0.00078999758858 -0.00041241236317 -0.00039573533316 -0.00047763492295 -5.3203118413e-05 2.2888747813e-05 0.00014025073778 
7.6055371404e-05 -3.0885069109e-05 1.0511916845e-05 3.3279409624e-05 -7.4082750329e-05 -7.4675107444e-05 -0.00013111291888 -3.4865731354e-05 0.00032701906542 
8.8748044978e-06 4.3644907092e-05 -0.0002028602643 0.00092421924394 -0.0017498334674 -0.002350955872 6.2808961589e-05 4.4501829608e-06 0.0002792033667 
-0.0001052496445 -3.7665536747e-06 -8.2385111228e-05 -0.0010646155196 0.00028605403903 4.0933388635e-05 -0.000258424455 -0.00019208342332 -0.00034799177255 
-7.7265307202e-06 -0.00011497045486 7.039058505e-05 -7.5140965299e-05 -0.00013939831411 0.00017806098866 1.5539534789e-05 0.00013534154272 0.0001000675516 
-0.00017569145532 -0.00020581893771 -0.00019769122345 7.8842353392e-05 -8.5798727112e-05 0.00026296828507 -0.0008737428612 -0.00016455640818 0.00029759481765 
-0.00019999891675 -0.00039301163017 -0.00026064994798 -0.0002723128718 5.3367935651e-05 9.1560400768e-05 2.8822809114e-05 2.2657656882e-05 -2.7162396704e-05 
1.9102090074e-05 -0.00011535155299 -0.00012182082578 -5.2160093623e-05 -2.8678764567e-05 2.1072773615e-05 2.7311048733e-05 -0.00026583618326 0.00016010208656 
4.7207884947e-05 -0.00020766859733 -1.3991406642e-05 -4.3031420957e-05 -7.7203587772e-06 2.4879527021e-06 -1.967964052e-05 5.6979777134e-05 3.4366556797e-05 
-6.1191995571e-06 5.4736208453e-05 -0.00012625613114 -0.00016030684806 -3.4397314717e-05 9.9729214731e-05 -0.00024535630109 0.00019122774588 -0.00018630603537 
-8.7909023223e-05 -2.6610066362e-05 2.2148038157e-05 -9.3935129007e-05 0.00027414791618 0.0001219291274 -0.00015353229341 -8.5038770351e-05 -0.00022545174964 
-7.5320761648e-05 -6.4459325747e-05 0.0001295122613 -0.00061799765892 7.397538894e-12 0.00080473983807 -0.00020132155729 6.5832018886e-05 0.00010765073011 
-2.9775007282e-05 -6.1747259918e-05 -8.5253552348e-05 -8.491150388e-05 0.00016258397942 2.8041140353e-06 -0.0002110529774 2.6823691606e-05 4.0443664868e-06 
-8.7217192287e-05 -2.732678392e-05 -4.1480739553e-05 8.6103127385e-05 -0.00018706220539 0.00017462729361 6.3150826514e-05 7.9377025177e-05 2.0275129957e-05 
-5.6208427225e-05 -6.3983982033e-05 6.5247124862e-05 -2.3672048945e-05 2.9263607333e-05 0.00010378390445 -0.0001180131971 1.2998501779e-05 5.9320529122e-05 
-0.00040028559292 4.0299737238e-05 4.1558882694e-06 -0.00022425821405 -4.6333338371e-05 5.8533904615e-05 -0.00020635088907 3.2620714508e-05 -7.8164895267e-05 
-0.00014975025223 3.1113865027e-05 6.7497693362e-05 0.00016485602036 -3.8771910804e-06 -9.4076194109e-05 -1.1463539476e-05 -8.5625064749e-05 -2.2770852724e-05 
-0.0001745985595 -1.0041241827e-05 -1.3173543353e-05 3.5474057255e-05 -9.6192422278e-05 8.327041074e-05 -0.00012708344979 -3.5788581478e-06 4.1729797654e-07 
9.5513722889e-06 -6.2527654031e-05 3.0846548347e-05 -0.00015692003989 -2.2910083195e-05 -0.00012765757152 -0.00026784705903 3.0257820925e-05 -1.1945833511e-05 
-7.3839862838e-05 -2.4547742455e-05 4.8023134649e-05 -0.00032449826133 6.2612323797e-05 9.5403443561e-05 0.00012914738553 -0.00019544731804 -0.00010143777626 
-9.1085874019e-05 2.596700163e-05 8.0175485589e-05 3.5336352015e-05 0.00017730648602 -0.00022496969109 -0.00018799699108 -4.357071923e-05 -0.00015311913405 
-0.00023187920711 6.3607971629e-05 -1.0739046304e-06 -0.00018036151853 -3.1171104684e-05 4.7165822686e-05 -0.0001913664924 -7.2623676833e-05 1.7116064805e-05 
-0.00010216732765 -6.4358767799e-05 -0.0001174286127 8.4047827023e-05 -0.00022140935973 -9.5299902475e-05 8.151309848e-06 -7.9810529238e-05 0.00011268088851 
-0.00029476086656 4.0635797249e-05 -3.2092452581e-05 -0.00058996484358 0.00023653816583 -0.00011826606374 0.00089621766821 1.0546492699e-05 0.00046933110328 
-2.5450000938e-05 -9.5288162882e-05 -2.2397358928e-05 -0.00015575151074 -0.00023258706327 0.00017638775169 -0.00024131135405 -8.8143482348e-05 -3.5919130639e-05 
-0.00028030856799 -0.0002651915932 2.0671694272e-05 -1.8447459841e-05 8.2839626539e-05 -0.00018721068127 0.00013301923682 -0.00028832778437 -0.00028979112672 
4.3314661754e-05 -0.00011960755538 -8.0546846473e-05 -3.9817760658e-05 -0.0001794001002 -0.00035582819197 -0.00016481639447 5.1306690179e-05 0.0001193050617 
0.00011223493959 5.5490991742e-05 5.7352446841e-06 -0.00048725957081 -4.8062511564e-05 3.1291964354e-05 -0.00014425062689 2.7793195455e-05 0.00010568147461 
0.00062919361624 -0.00078790643605 -0.00034790232954 -2.5957186305e-05 8.155747577e-05 -0.00021274000082 -0.00027364223945 1.1952453285e-05 1.0971664958e-05 
4.9570180561e-06 -0.0003292499646 -6.734971073e-05 4.2131827849e-05 -2.718591154e-06 0.00028749977555 1.8662853824e-05 -0.00025552295679 -0.0002372822102 
-2.6171705177e-07 -0.00013701377921 6.9048249766e-05 4.1770983998e-05 -0.0002038287008 -1.74372046e-05 -0.00014241975885 2.1578150823e-05 0.0001722449568 
-0.0002602210575 -0.00017935063961 -0.00037120939675 -6.1063744217e-05 8.5113563146e-05 -0.00011783658747 -6.4285307402e-06 2.2822640963e-05 0.00036134836438 
-0.00054121251109 -0.00019441573939 -0.00068270739127 -5.4906852455e-05 -0.00014209265089 0.00027719439803 -0.00011457237359 -7.0277299291e-05 -0.00027682302767 
-0.00012815711603 -6.0356407343e-05 8.313960452e-05 -3.0519665592e-05 4.3651971761e-05 4.2466166224e-06 -0.014277880638 0.012131012922 -0.046948494177 
3.493108921e-05 -3.8157265228e-05 -0.00024553975028 -0.00013623581254 0.00016196097223 -8.3666504492e-05 -3.156716239e-06 -2.411110697e-06 4.9658552324e-06 
-4.6908853434e-05 2.6999817184e-06 0.00015525798936 -0.00014086265035 6.7333330987e-05 -1.7456285123e-05 8.8084376709e-05 7.9215043839e-06 0.00016711969245 
0.00013396681018 -8.0913381248e-07 -9.4166016139e-05 -2.6621294275e-05 -7.7682932332e-06 8.500865006e-05 -8.7020982738e-06 1.5842793921e-05 -1.0955648078e-05 
-4.976460195e-05 1.5656990765e-05 -8.7694469406e-05 -0.00010254180846 -2.6170993514e-05 6.5112148098e-05 -0.00022599336941 -5.6103334996e-05 -2.8255842155e-05 
-4.1180618081e-05 1.3162102055e-06 0.00018093009474 8.2065766941e-05 3.8256716576e-06 2.3811968656e-05 -0.00016649629894 7.3371632907e-06 -0.0020652951523 
-0.00016192159194 -5.2845981481e-05 9.2917546488e-05 5.7826949399e-05 -5.9720201654e-06 1.650216682e-05 -0.00013557230034 5.0619250053e-05 -3.6730763296e-05 
-2.322211684e-05 -8.8349308681e-06 5.6344973751e-05 -2.7995775283e-05 1.6143446613e-05 -2.2170149686e-05 -0.00013182656409 8.195621612e-07 -0.0001202647002 
7.4948109554e-06 2.8388407885e-05 -2.6120295042e-05 -6.3112598377e-05 -7.5841737754e-06 1.8385238014e-05 3.4594791802e-05 3.2042841571e-05 0.00010796270469 
5.8466677105e-05 -3.5865832372e-05 -0.00022977667178 -9.7632865589e-05 -7.2274222441e-05 -0.00017076870735 -0.00011396819005 -4.9259151508e-05 2.7559522535e-06 
-3.6029750336e-05 1.6924571701e-05 -3.3088601791e-06 -2.9999965903e-05 -0.00017139113256 7.976323657e-05 -0.00017867172218 -6.6378638334e-05 9.2151979611e-05 
-4.2720315459e-05 0.00013421720373 -7.5262827621e-05 -0.0001498621887 2.2166051903e-05 -5.6313910202e-05 8.9817910025e-05 -2.3373753063e-05 0.00014243771343 
-0.00012982615331 4.4800553511e-05 0.00013646208314 -0.00029026544973 3.3299740232e-06 -1.5516200436e-05 0.00012871676291 -8.9082340738e-06 7.8091223772e-05 
-4.1453291224e-05 -0.00019451701318 -0.00010468715469 -9.6624536866e-05 9.3402144308e-06 -2.799654571e-05 9.6064687551e-06 -1.4319849292e-05 7.2619590915e-05 
-7.3136442703e-05 -1.293045996e-05 6.5066620468e-05 -3.7665108946e-05 -3.4783272734e-06 2.1859258161e-05 -0.00015054770371 -4.9270915765e-05 9.9958101662e-05 
-9.1930615542e-05 -0.00011864857934 -0.00010073720255 -0.00010786381468 -2.5783164866e-05 0.00010002448957 -0.00024246600362 -0.00041051525788 -0.00043482462376 
-0.00034408340998 3.6288658049e-05 0.00017404200562 8.0153947796e-05 -2.0798856096e-05 0.00010339659313 -0.00029019808636 4.0341348693e-05 0.00014436753295 
-0.0003094888911 5.7162246581e-05 3.6942237841e-05 8.7185277784e-05 0.00019984707716 -0.00028991681158 -0.00011660204359 -5.0930252682e-05 -1.0266044762e-05 
-0.00031631831599 3.6121686572e-05 0.00023667238835 -0.00021156671023 -0.00010480341104 0.00016468332195 -0.00018095709834 3.3739842431e-05 -7.9767152561e-05 
-0.00014938697619 2.8557483291e-05 0.0001347628396 -2.7917403692e-06 0.00015309775832 -0.00019556610675 4.6128477224e-05 -8.6258325154e-06 -7.5591536601e-05 
-0.00022335829453 -0.00024690563532 0.00010271014312 7.6839446795e-07 -8.4061679187e-05 -2.3707199648e-05 0.00023147786708 -0.00065446281305 2.4992510803e-05 
-0.0001433058705 3.9803104909e-07 8.8147243644e-05 -0.00054270703735 0.00030933966149 0.00023135632164 8.6862532979e-05 -2.9870044746e-05 -7.4614530297e-05 
5.6980837754e-05 -0.00034695634878 -0.00046774613813 -0.00026676829496 -0.00034884057678 -0.00024387747895 -0.0003713267061 -0.00011675166394 -7.1246795792e-05 
-6.989250273e-05 1.0639681254e-05 -0.00033043284988 -0.00011126941306 1.8831013099e-12 4.9845776729e-05 -6.6789430075e-05 -9.4250930956e-05 -0.00029461888044 
-0.00026101985955 -0.00010562150834 -1.3622059741e-05 -0.00023480499106 -0.00030084817431 3.2164843458e-05 2.3999872528e-05 3.2111002316e-05 -0.00020349880946 
-3.6312362489e-05 -5.04221986e-05 0.00013268801827 -0.00051207859317 -0.00034065891169 1.326807915e-05 -0.00012120723521 -2.292886558e-05 3.7631485562e-05 
0.00016851201035 1.1787505173e-05 -5.5820643592e-05 -8.6299510759e-05 3.8199605685e-05 -0.00010425136933 -0.00023750380242 -9.6959191179e-05 -0.00021369070615 