# vtk DataFile Version 4.1
vtk output
ASCII
DATASET UNSTRUCTURED_GRID
POINTS 1274 float
0.76501 -0.0931126 0.036593 0.730476 0.0174481 0.0921309 0.749655 -0.224687 0.271382 
0.77513 -0.252688 0.0859324 0.636173 0.239924 0.0323145 0.665837 0.190578 0.107174 
0.761629 -0.0941709 0.173867 0.708557 0.0615754 0.267982 0.58458 0.382097 0.048752 
0.595168 0.334896 0.124607 0.728701 0.0258965 0.214607 0.654952 0.199346 0.265753 
0.541549 0.468772 0.0319641 0.521505 0.5367 0.0392327 0.577718 0.401441 0.139371 
0.606651 0.329904 0.200218 0.533725 0.507288 0.221987 0.491289 0.608555 0.0387386 
0.554026 0.434196 0.0821734 0.651938 0.312601 0.0934061 0.538677 0.494849 0.129883 
0.665045 0.360074 0.232885 0.507668 0.558698 0.265097 0.57745 0.38852 0.228724 
0.458704 0.671763 0.0326526 0.550387 0.447673 0.187975 0.477118 0.64556 0.259726 
0.435715 0.7339 0.0355525 0.575929 0.604154 0.0948607 0.510864 0.57275 0.107681 
0.50659 0.743863 0.0683665 0.508457 0.546091 0.172003 0.485964 0.608955 0.196433 
0.56552 0.734026 0.104207 0.60488 0.644462 0.0413382 0.479242 0.653783 0.107908 
0.64868 0.609906 0.0975472 0.459796 0.667273 0.180832 0.54463 0.580678 0.211377 
0.412412 0.785663 0.070913 0.526939 0.680256 0.0359859 0.538665 0.6247 0.148517 
0.437518 0.73086 0.183086 0.444574 0.712786 0.264833 0.442175 0.729061 0.108517 
0.601341 0.716798 0.0401289 0.422374 0.779525 0.238717 0.413195 0.78018 0.146158 
0.755767 -0.19267 0.017884 0.850916 -1.28169 0.247795 0.773397 -1.17757 0.0915994 
0.823093 -1.25492 0.182238 0.781128 -1.03412 0.308885 0.798324 -1.2345 0.333091 
0.830326 -0.63989 0.196933 0.790342 -0.273908 0.19747 0.767877 -1.18921 0.0168411 
0.821072 -0.685467 0.145003 0.704796 0.087742 0.0384545 0.86313 -0.986077 0.0594027 
0.849845 -0.745139 0.0933063 0.835478 -0.739569 0.268963 0.7822 -0.289807 0.277385 
0.787564 -0.441734 0.186999 0.841326 -0.24968 0.0879533 0.666097 0.17549 0.0354704 
0.762435 -0.0808319 0.105582 0.793479 0.0327146 0.174885 0.833392 -0.628286 0.104925 
0.737269 -0.0113654 0.266769 0.678215 0.133695 0.143594 0.661537 0.178722 0.184813 
0.732209 0.00327936 0.156504 0.856953 -0.589089 0.233449 0.711028 0.0732633 0.135444 
0.79767 0.0125277 0.104026 0.693776 0.277277 0.0363754 0.773981 -0.0128515 0.039582 
0.736419 0.148055 0.163035 0.62955 0.252361 0.0939784 0.597183 0.340859 0.269644 
0.783927 0.0448052 0.254698 0.859301 -0.318738 0.259799 0.834681 -0.0535143 0.201828 
0.703599 0.0848144 0.205658 0.764427 -0.0349989 0.203639 0.657392 0.358589 0.0384455 
0.724461 0.338208 0.0319533 0.759441 0.131802 0.0327672 0.642281 0.242792 0.161444 
0.71372 0.131268 0.0920793 0.677735 0.29154 0.260656 0.630827 0.249377 0.229551 
0.612904 0.451838 0.0374242 0.577314 0.581419 0.032592 0.662423 0.505642 0.0331224 
0.608287 0.467229 0.112578 0.627014 0.427218 0.193805 0.6452 0.399886 0.101295 
0.625003 0.417052 0.265559 0.557265 0.4478 0.261452 0.692711 0.406851 0.268899 
0.690783 0.401533 0.189637 0.598366 0.519873 0.0324003 0.573377 0.538478 0.087428 
0.666404 0.4609 0.0779973 0.583399 0.560839 0.153498 0.608953 0.493638 0.229514 
0.641088 0.550215 0.263394 0.574699 0.56574 0.267483 0.670633 0.46046 0.24058 
0.699392 0.618552 0.0389762 0.674802 0.541498 0.0844875 0.640305 0.524302 0.133172 
0.542244 0.62013 0.269156 0.73854 0.665896 0.174102 0.675718 0.60942 0.267881 
0.629872 0.590212 0.20509 0.60903 0.624817 0.264218 0.6723 0.574232 0.15461 
0.56367 0.653346 0.210498 0.776829 0.652541 0.0503513 0.723588 0.586231 0.106284 
0.663898 0.683213 0.0341943 0.556959 0.669207 0.0983951 0.605331 0.630586 0.152466 
0.562762 0.714046 0.260952 0.634328 0.657892 0.207924 0.605119 0.715997 0.200935 
0.658885 0.673479 0.265881 0.727129 0.722297 0.0362711 0.529006 0.690367 0.156795 
0.686315 0.701662 0.199927 0.504626 0.700386 0.219231 0.664286 0.661277 0.143167 
0.609496 0.695396 0.133641 0.667624 -1.30637 -0.00616574 0.766136 -0.356978 0.00216599 
0.667617 -1.40919 -0.295152 0.658054 -1.29752 0.256645 0.838795 -1.27074 0.382354 
0.623367 -1.34394 0.176187 0.696307 -1.24389 -0.149705 0.844534 -0.972793 -0.0577254 
0.719815 -0.846033 0.0991387 0.829686 -0.579801 0.298763 0.759755 -0.829854 0.290586 
0.714752 -1.27559 0.222715 0.805301 -1.30073 0.310014 0.792631 -1.15136 0.155604 
0.801747 -0.608538 0.0314809 0.795507 -1.27477 0.0856485 0.839275 -0.420367 0.250709 
0.901499 -1.02487 0.126379 0.859467 -0.98403 0.194533 0.841995 -0.81295 0.171963 
0.843445 -0.485097 0.278777 0.828497 -0.175915 0.0346221 0.793509 -0.457043 0.0910743 
0.797391 -0.0421309 0.142264 0.792644 -0.217062 0.150717 0.806193 -0.124986 0.267854 
0.898102 -0.422301 0.326114 0.918426 -0.639289 0.262495 0.758553 -0.181468 0.205069 
0.82052 -0.12701 0.161621 0.822159 -0.385148 0.139965 0.838427 0.0325116 0.0390281 
0.77085 0.0623828 0.0343853 0.770355 0.106895 0.209955 0.70578 0.137734 0.252915 
0.776549 0.151019 0.265225 0.688224 0.227803 0.216414 0.853178 -0.311642 0.18961 
0.859314 0.035693 0.151403 0.721181 0.214676 0.056204 0.775781 0.100199 0.134907 
0.770674 0.273425 0.0397015 0.682833 0.423409 0.0315424 0.732371 0.348465 0.260434 
0.75759 0.417864 0.265548 0.717247 0.211128 0.147161 0.651294 0.348802 0.148149 
0.734721 0.470497 0.0389371 0.701047 0.265887 0.111516 0.687853 0.521633 0.202807 
0.667822 0.47074 0.155124 0.716755 0.359672 0.125844 0.705938 0.536273 0.269179 
0.689924 0.300262 0.183121 0.643817 0.57091 0.0347889 0.767479 0.585976 0.0335716 
0.789561 0.520959 0.0398033 0.712534 0.548619 0.032884 0.743402 0.519964 0.0885582 
0.718975 0.462855 0.113731 0.745168 0.369697 0.192984 0.68985 0.62628 0.192774 
0.779457 0.713652 0.0927073 0.845515 0.643068 0.0606249 0.768297 0.648808 0.119841 
0.70204 0.521093 0.134725 0.768984 0.532323 0.268671 0.795384 0.692949 0.185794 
0.731879 0.666222 0.260316 0.747356 0.558707 0.168901 0.727119 0.453075 0.204704 
0.739385 0.590019 0.236257 0.923374 0.645656 0.101131 0.858412 0.63156 0.127778 
0.708579 0.674733 0.09099 0.874875 0.609962 0.238009 0.794035 0.619887 0.182976 
0.896315 0.545088 0.217221 0.637776 -1.41529 -0.213315 0.673152 -1.37313 -0.150524 
0.510148 -1.4135 0.0785851 0.851524 -1.2633 0.529102 0.366196 -1.33495 0.200066 
0.733569 -1.25342 0.0391447 0.775928 -1.27014 -0.222456 0.663265 -1.36373 0.108158 
0.627606 -1.346 0.4251 0.90856 -1.30598 0.212109 0.646317 -1.35561 0.342481 
0.774512 -1.26804 0.415951 0.671165 -1.29095 0.17288 0.850055 -1.17616 0.0268377 
0.844969 -1.14971 0.10795 0.772034 -1.31236 0.0331412 0.84179 -1.18251 0.198008 
0.87827 -1.27338 0.312059 0.562041 -1.3424 0.017349 0.986774 -1.29502 0.224751 
0.777955 -1.35863 0.216386 0.823624 -0.341263 0.0581235 0.859622 -0.890876 0.0264426 
0.864217 -0.923315 0.122624 0.889598 -0.631599 0.173832 0.894955 -0.726596 0.145155 
0.820931 -0.213281 0.255386 0.867267 -0.867874 0.246018 0.892171 -0.911075 0.186192 
0.899942 -0.804717 0.212886 0.963047 -0.985969 0.0960409 0.7289 -1.05562 0.203463 
0.860097 -0.320448 0.117707 0.832638 -0.55301 0.0740694 0.914046 -0.942091 0.0867328 
0.897616 -0.819142 0.106872 0.929868 -0.745497 0.237274 0.849147 0.160415 0.268535 
0.855375 -0.474712 0.138457 0.837772 -0.0976243 0.101425 0.791086 0.196019 0.0412453 
0.900748 -0.254534 0.107969 0.859892 -0.461639 0.0681256 0.869604 -0.212208 0.154526 
0.838836 -0.170728 0.203059 0.874488 -0.516665 0.195118 0.730376 0.240265 0.265685 
0.749995 0.201439 0.203257 0.792842 0.347707 0.0372513 0.823281 0.220916 0.0983703 
0.810185 0.0734283 0.0897276 0.83607 0.140825 0.0937909 0.765806 0.165202 0.100343 
0.760806 0.231 0.106157 0.766161 0.314612 0.161883 0.882111 -0.122249 0.185823 
0.749926 0.281162 0.217048 0.838463 0.0869113 0.239987 0.800064 0.15749 0.153571 
0.831234 0.590557 0.0301861 0.801803 0.430312 0.0383743 0.859756 0.531294 0.0358786 
0.756033 0.307874 0.0986001 0.738694 0.397685 0.0644513 0.792553 0.36497 0.113945 
0.728117 0.477428 0.266556 0.750815 0.416851 0.14784 0.806749 0.361345 0.181904 
0.785311 0.468685 0.0987424 0.799141 0.531975 0.129828 0.892915 0.591154 0.0663342 
0.805477 0.595897 0.0926761 0.751188 0.494857 0.160727 0.784173 0.419635 0.204543 
0.910712 0.476307 0.0975308 0.800849 0.521274 0.205915 0.810064 0.462817 0.162417 
0.807417 0.660785 0.247807 0.979857 0.577689 0.0492418 0.915511 0.530464 0.148487 
0.862796 0.5407 0.103642 0.853366 0.568808 0.168152 0.813404 0.588182 0.261772 
0.510114 -1.41152 -0.0734447 0.335499 -1.4142 0.0390913 0.404028 -1.41021 0.348751 
0.511723 -1.41424 0.217239 0.436254 -1.40822 0.481402 0.474975 -1.41551 0.423819 
0.578787 -1.31269 -0.134326 0.587884 -1.4065 -0.277281 0.752364 -1.32608 -0.280626 
0.32936 -1.25784 -0.146419 0.542021 -1.38166 0.125393 0.728933 -1.40888 0.451129 
0.567261 -1.36269 0.297127 0.72673 -1.36479 0.343784 0.563284 -1.36761 0.456827 
0.883351 -1.30433 -0.047555 0.669409 -1.30404 -0.165784 0.727065 -1.36022 -0.0980475 
0.901055 -1.41013 -0.0341662 0.826978 -1.30669 -0.00685401 0.728905 -1.35999 0.137321 
0.782176 -1.28919 0.226426 0.886389 -1.3313 0.424979 0.671234 -1.36922 0.2737 
0.940261 -1.31621 0.308105 0.837842 -1.22017 0.111772 0.842463 -1.24823 0.0318127 
0.855265 -1.31392 0.164285 0.892949 -1.25154 0.164297 0.862087 -1.33528 0.330736 
0.844853 -1.0209 0.287159 0.874892 -1.11889 0.264827 0.896783 -1.26054 0.454604 
0.810912 -1.15365 0.266657 0.907898 -0.94041 0.26204 0.912823 -0.772688 0.0397367 
0.867538 -0.38467 0.0267176 0.818787 -1.11083 0.205941 0.904824 -1.13457 0.053762 
0.876385 -0.695938 0.242304 0.921896 -0.987371 0.180337 0.9028 -0.803114 0.302 
0.844545 -0.278074 0.0307773 0.886954 -0.415139 0.162654 0.884755 -0.512445 0.0264915 
0.828137 -0.0594401 0.0364311 0.929555 -0.717061 0.0917645 0.902782 -0.527186 0.284767 
0.911958 -0.193379 0.213114 0.8747 -0.658968 0.0377655 0.882842 -0.366368 0.219164 
0.863758 -0.111694 0.247913 0.867807 0.217035 0.0399824 0.821939 0.107174 0.0346045 
0.871745 -0.172177 0.0922293 0.85201 -0.0221864 0.114364 0.936636 -0.249106 0.171063 
0.855694 0.0118892 0.259974 0.893122 -0.268963 0.243473 0.797391 0.255076 0.260934 
[...]
POINT_DATA 1274
FIELD FieldData 10
VELOCITY 3 1274 double
0.50641264553 -2.228399272 -0.075855769599 0.63467494704 -1.5413533647 -0.083929458685 0.179301001 -2.9534696197 0.033038462214 
-0.03008728442 -3.0920864209 -0.16926484585 0.35779536455 -0.87713587642 0.00040477431141 0.44606398698 -1.4429420676 0.17359030139 
0.57480740723 -2.4538970364 0.013497008535 0.59624727624 -1.4480291647 -0.010012251616 0.44500465801 -1.0992834612 -0.027028576117 
0.35860755462 -0.89590081828 -0.27164478025 0.71468668238 -1.6724570192 -0.09902588958 0.50024350716 -1.2141231956 -0.0013609729731 
0.33258192431 -0.80015320077 0.0086619549298 0.34677030084 -0.78105929153 0.0016005366403 0.38950931404 -0.93875468187 -0.072220291261 
0.31679413038 -0.79721399212 0.012775239791 0.38743387982 -0.85998332695 -0.12489853923 0.31237374209 -0.78510229091 -0.058758897256 
0.43080413158 -1.0208906085 -0.15072447514 0.7241950312 -1.2641754122 0.065222667175 0.39314325059 -0.95472484605 0.30405920289 
0.50688846096 -1.1009106983 -0.046273808475 0.49463338046 -1.2012525495 0.0013209221004 0.20405178926 -0.91096086588 0.12182531807 
0.31867407019 -0.77332115073 0.0006708442558 0.48198274722 -1.1705295817 0.28091563612 0.34316319655 -0.83421829041 -0.002079989653 
0.29727366957 -0.78268349591 0.095522573371 0.56097439774 -1.0868069276 0.051143788581 0.33071491161 -0.67653574457 -0.047167966677 
0.40698805959 -1.2807564645 -0.069473542205 0.23397734434 -0.56639608917 -0.0038320254887 0.348626444 -0.84663725155 0.0057607807076 
0.38974586939 -1.0731948337 0.017480415087 0.52532144391 -0.97414058457 0.053392856163 0.34430420423 -0.83535369281 -0.023862923602 
0.55584629588 -1.1644685055 0.11877425114 0.30361156072 -0.8742841705 -0.02203074945 0.41757862127 -0.72165474252 -0.014841093005 
0.36327421503 -0.88243877939 0.28796438286 0.43422726947 -1.3160210656 0.00047125678794 0.48310026901 -0.69247052437 -0.12145888847 
0.35198131999 -0.85478913311 -0.024715204725 0.34661685695 -0.83253392455 -0.0017820043575 0.347801311 -0.83372225357 0.0022954043015 
0.52196107085 -0.9740209927 0.018636466067 0.30480131936 -0.85695328596 -0.028760436637 0.29444190521 -0.88407078281 0.029799541858 
-0.003988882379 -2.7872820637 -0.24874007945 -1.770579898 -1.9315977414 0.22278081235 -0.91147243356 -3.4857798919 -0.34555444871 
-1.3681488845 -2.105893735 0.55461101396 0.096939698481 -4.852433382 0.15266352551 -0.80748016747 -3.2082951621 0.77132681016 
0.43406770984 -4.2275643747 0.032741525428 0.48682185192 -3.139262187 0.024444894657 0.095172018175 -2.1320815949 -0.66917614546 
0.38179319469 -4.2338618356 -0.024881009168 0.61739113104 -1.7131831443 -0.14184581163 0.22430588677 -5.0612368116 -0.03826331396 
0.27362830136 -4.4467720053 0.033325179909 0.43336789912 -4.4144912829 0.0050682854492 0.22851009029 -2.9787840925 0.10592216036 
0.16066103907 -3.5699032829 0.16428051419 0.1255061941 -3.6685444974 0.0917564986 0.29158198995 -0.70415838251 0.0052764844594 
0.4761025346 -2.4551685417 -0.034795207077 0.64601705239 -2.1185758306 -0.045846254272 0.41956191363 -4.242951642 -0.03214274465 
0.36829691163 -1.6100367313 0.016790966905 0.50872032479 -1.3200802684 -0.19273560358 0.52008146338 -1.2483335842 -0.33288735876 
0.65985766605 -1.6621502664 -0.10925642455 0.1290987625 -4.4703348618 0.26426241922 0.67193010493 -1.637631229 0.14458919652 
0.54076388909 -2.4842541904 0.14063722598 0.62892015324 -1.2385212409 1.7001432533e-05 0.37604048554 -2.0648643755 -0.028183628327 
0.51460185012 -1.811618024 0.025795246637 0.48154845427 -1.1702733664 0.072781033657 0.4219013001 -1.2290696596 -0.0014718228931 
0.58169267911 -1.7577931504 0.1994234879 0.36514934703 -3.5183551127 0.031139368972 0.49202832825 -2.794715813 0.11756054022 
0.18743644405 -1.7980334566 -0.18466793334 0.55318785213 -2.3945294553 -0.088272897048 0.38357574703 -1.3478088595 -0.0024184513298 
0.45378360635 -1.1392160607 -0.0012788081647 0.40613664387 -1.4930128491 0.067726884407 0.22209596606 -1.1936606479 0.11383624571 
0.66535927114 -1.9529234589 -0.048585974454 0.45857547729 -0.95197891728 0.027638636211 0.39072729304 -0.94670334432 0.12195298515 
0.21687778999 -1.0272204716 -0.035394466627 0.46826926805 -0.94891630827 0.009292730203 0.32528236025 -0.99951414481 0.0057755444081 
0.34468548044 -0.91546892839 -0.053772999379 0.57028829737 -1.2944544258 -0.055341020038 0.31600349084 -1.0292790406 -0.19984952283 
0.308087522 -0.93177155098 -0.0028095465773 0.33682626706 -0.79475925674 0.0046385689411 0.37601133564 -1.0578952634 -0.00021943250276 
0.5585124028 -1.2971639077 -0.25829798548 0.14415025572 -1.043217771 0.015656622323 0.32560455968 -1.120907167 0.081486993072 
0.29883003888 -1.1088458637 -0.090685078618 0.39624315778 -1.0682789003 0.086902373567 0.42905575791 -1.1078534181 -0.33255110944 
0.30077903611 -1.1524970466 -0.11132289565 0.35688144921 -0.82754046625 -0.0046871117202 0.39306433976 -1.1361649677 -0.19634618324 
0.51620330393 -1.0899406309 0.023775163285 0.42183781197 -1.0248728825 0.091558129964 0.43069371572 -0.97132293001 -0.021704733976 
0.34287225586 -0.83485958396 -0.00056637325838 0.43424909029 -0.98889883669 -0.022797939152 0.31757130472 -1.1777070028 -0.00094021451407 
0.4779875222 -0.98148939682 -0.033177533278 0.37446900991 -1.0989551319 -6.808054929e-05 0.58951400873 -1.1589969022 0.1272996268 
0.44722547481 -0.90513582436 -0.0040148337764 0.58578715784 -1.245756187 -0.0020548082366 0.60544237731 -1.1710979263 -0.0057464233861 
0.50187857685 -0.94529013893 0.0011787098971 0.46675756772 -1.1138856477 0.024026215477 0.52262728003 -1.1138956375 -0.056357791126 
0.44871302476 -0.90721858305 -9.5290213913e-05 0.45491938153 -0.95269310659 0.053697738519 0.5089028018 -0.92306642706 0.03817148495 
0.42537726073 -1.1273162067 0.1141186684 0.55118287009 -1.104063099 0.0016717617925 0.44591806404 -0.95171836718 -0.041743975198 
0.4772470817 -0.97419589263 0.077042996912 0.4773474633 -0.92571661977 -0.033984883003 0.4375754795 -1.0124976358 0.00054454548532 
0.39616062496 -1.0805951992 -0.0009253756952 -1.0392633047 -0.078754477345 -0.33009957644 0.057383606976 -3.3338087174 -0.30977421271 
-0.76984388731 0.011979076419 -1.4672774536 -1.7765587774 -0.090075393849 0.23288375111 -0.873177549 -2.449795738 1.2288026806 
-1.1265595217 -0.16625596776 0.097490305836 -0.76198269433 -0.69933575414 -1.1737536758 0.34973470008 -4.8354350165 -0.35120011738 
-0.089577781939 -4.5301160291 -0.04594144832 0.46749596568 -4.0713065694 0.21838441246 0.075447171858 -4.4830970952 0.10675642831 
-1.5212017623 -0.58653314793 0.33412940886 -1.7807441968 -3.1763285298 0.36582953 -1.0477824675 -3.3322837932 -0.30425384703 
0.15963110882 -4.1372870723 -0.038909925371 -1.7871728799 -0.47897362087 -0.93312033628 0.38343018189 -3.8132028547 0.31631543468 
0.33141712051 -5.2454368309 -0.11960110391 0.069201007184 -5.1583848117 -0.040765696527 0.41012400537 -4.4809188033 -0.026223230791 
0.37867602382 -3.9162655172 0.12641129578 0.1962382842 -3.2494283844 -0.10546185426 0.18561922894 -3.8769274656 -0.037106463882 
0.3969925071 -2.6085470619 0.2100759288 0.29356844476 -3.1272531766 -0.0053305056468 0.44726391662 -2.9718921028 0.0050619827407 
0.52740551351 -3.8051422535 0.54497139422 0.46116224466 -4.3924961723 0.21925969788 0.2128959807 -2.8668384979 -0.11318448423 
0.43130290816 -3.1135810266 -0.0063815048689 0.33209724068 -3.8567650952 0.14329763365 0.28200391593 -1.9141924824 -0.1838195035 
0.045487811476 -2.2940532775 -0.17817817661 0.23129442018 -1.6204799321 -0.12815731389 -0.049964604388 -1.9917085432 0.071166154912 
-0.074442937636 -1.7002004749 -0.0011806006252 0.22334089398 -1.2048365194 -0.18117791378 0.38507738652 -3.4692011087 0.12240942641 
0.59778078087 -2.1414340362 -0.15531879174 0.48460028989 -1.1717118427 0.4596590986 0.88099323244 -2.0976468616 -0.10166953498 
0.14039756314 -1.5183218221 -0.00096665478607 0.18125139522 -1.269591048 -0.0006683757934 0.51082688743 -1.0020419341 0.00015413571991 
0.3966098981 -0.9597960541 -0.0016742805361 0.53104149445 -1.546712152 0.12588961445 0.26249426445 -0.9339133975 -0.054628199779 
0.28559347323 -1.3198218899 -0.019767893775 0.24931891369 -1.7307067083 -0.033219286603 0.54141125577 -1.3994387707 0.018602118398 
0.29394353186 -1.1247034032 -0.16883569901 0.26406093536 -1.0732127015 -0.027775005515 0.31999493928 -1.047933044 -0.0010621613466 
0.14078345544 -1.0571462693 -0.075375058809 0.40628908611 -0.94859198859 -0.02846148066 0.53212127178 -1.2392495709 -8.1851860639e-05 
0.37745156119 -1.2548891617 -0.16682924416 0.44079796445 -1.1126370474 0.0041409165655 0.45628866158 -1.2843034658 -0.084072400199 
0.31193027713 -1.2964837116 -0.11302752902 0.47753236036 -1.4278493218 -0.14068200665 0.43613950975 -0.97603505335 0.027130019493 
0.62252634907 -1.1475108832 -0.10459327462 0.68647537453 -1.1772275558 0.24042433804 0.49781705651 -1.1087555853 -0.038921820567 
0.5451699497 -1.1028769047 -0.0033154232221 0.32011649619 -1.111607065 -0.0014013532671 0.6007820187 -1.0193958214 0.043585588544 
0.40734954749 -1.2239594699 -4.4769275458e-05 0.40095836413 -1.3163489259 -0.0056508353432 0.52510197695 -1.3665978394 0.0683710504 
0.42468078342 -1.193326616 -0.13962851454 0.71220071662 -1.6201143781 0.25269710456 0.58103815867 -1.4129353094 0.12307448862 
0.48713679651 -1.0927132744 -0.0075962513778 0.24743346524 -1.0441347079 -0.17035575264 0.48603542783 -1.0311996748 0.0020480397379 
0.25997332983 -1.3558216502 -0.024569194412 -1.0286928154 2.628759985e-12 -0.71573440665 -1.3466828033 -0.68139697736 -1.2770637392 
-1.2364758417 2.7200240105e-05 -0.10278006612 -0.27933344828 -0.050268430421 0.062928879915 -2.1970992734 -0.20903024784 0.10337753025 
-1.6429958926 -1.3775981431 0.024522216098 -0.86790315876 -0.353643736 -1.5289526262 -1.5510031942 -0.6007340511 -0.012750080063 
-2.3601027547 -0.3899250443 1.1716888617 -0.73888490721 -1.9763048589 1.0590911356 -1.6187771375 -0.30675376738 0.35737597875 
-1.2931688862 -0.8451588551 1.1463802512 -1.7266319702 -0.38273653613 0.39261730699 -0.62540724559 -1.6729952813 -0.65497080615 
0.4392381085 -2.6709147357 0.010803599927 -1.3410862368 -1.2451882761 -0.75633004599 -0.3784265755 -2.9068775605 0.21254627511 
0.00082777614484 -0.77829054102 0.23698439998 -1.5371364091 0.35632019773 -0.56329213531 0.30105052976 -2.9191910969 -0.26057199742 
-1.925051016 -0.97548361493 0.1399466151 0.34674791583 -3.766590092 0.047478106246 0.12696003516 -4.9475828145 -0.040460106871 
0.32297877579 -5.0679016963 0.0033237358212 0.58389943195 -4.5639083157 0.15731204636 0.34020035265 -4.5562493639 0.025599259668 
0.30573119644 -3.2365944715 -0.062380844573 0.1545875822 -4.8702385164 -0.090354675602 0.22432974607 -5.0268437881 0.063664308305 
0.27378088361 -4.7744442903 0.061628080173 0.37037298101 -5.1191061071 -0.15046953486 -0.097396548321 -5.0774559935 -0.046834040286 
0.2447375907 -3.7338572851 0.10016938989 0.095103168715 -4.1747300945 0.026320787791 0.22761201894 -5.1393476255 -0.090926090948 
0.15515125066 -4.8609234037 -0.030329437339 0.044173597585 -4.6479000531 0.10426009213 0.26865170921 -2.0804880016 -0.0055599547959 
0.19294230504 -4.0650670012 0.011230433293 0.21364491197 -2.8854093513 -0.042619729957 0.30105199214 -1.5750700366 0.033503999325 
0.24974631463 -3.2875305271 0.082978434675 0.067667337224 -4.0023282168 -0.019858028019 0.30821313836 -3.2551517621 0.066516067479 
0.30361011779 -3.1676816854 -0.034486535997 0.1987862846 -4.1342206326 0.023015890129 0.061415474697 -1.364741347 -0.0040803315488 
0.39583103115 -1.7499790221 0.17673995127 0.45867330348 -1.5172573994 1.0028238186e-05 0.33805459973 -2.1135582499 0.2676734489 
0.43389936407 -2.4914273114 -0.18675807808 0.34336331101 -2.2627427469 -0.24343183076 0.46406505925 -1.5376367877 -0.46770630931 
0.64917720345 -1.4231952634 0.49990227624 0.42721694713 -1.5093460425 -0.036032354071 0.42197313921 -3.3360941678 0.21363838505 
0.042929485906 -1.5209780367 -0.15082499758 0.72050833029 -1.8854581947 0.14734149081 0.40022638326 -1.7578772636 -0.3454039234 
0.51521174372 -1.0133407978 0.015707474134 0.36889739204 -1.112218665 0.0036311505793 0.37015461583 -1.0883443979 3.5248630463e-05 
0.13535477415 -1.5483303739 0.013663730455 0.37205756644 -1.1192110526 -0.0085602887671 0.26575303832 -1.5743093638 -0.16154369283 
0.28813373974 -1.0110893618 -0.038794710014 0.53352055273 -1.1552911484 -0.091311853747 0.39058686738 -1.4346256537 -0.13474860133 
0.36707881155 -1.3150316078 0.14108690168 0.1776285406 -1.1667869178 -0.0753965878 0.52449646954 -1.4071283023 0.050775098755 
0.45781822326 -1.1332160435 0.029422480259 0.35561539613 -1.3219715 0.01901639451 0.47059659721 -1.4534932988 0.01165601408 
0.34155042299 -1.6399042702 0.32249724861 0.28163773367 -1.1043327955 -0.025447756371 0.36224387257 -1.2364975625 0.1599879811 
0.45190100827 -1.2230442774 0.13181205478 0.35035161577 -1.3026407327 -0.0065754984916 0.11352542239 -1.552388713 0.095626781041 
0.21915236377 -1.1579636304 0.044309154461 0.18293834906 -1.4388339945 0.13497533599 0.38196379354 -1.2567757679 -0.013086762553 
-1.184903119 -0.033469962671 -0.25323947007 -1.2296023559 4.3539306081e-12 -0.45308431071 -1.3011419001 -1.6369791312e-12 0.61198984176 
-1.3107858092 1.5523524866e-12 0.32223724865 -1.4356962385 -8.1114275063e-13 0.59166867831 -1.0515134273 0.021498422077 0.40118818757 
-2.0459909687 -0.81306197989 -1.0222081809 -1.2703596399 -3.1361575901e-12 -0.90715339165 -1.2274894955 -0.50934808072 -1.4737200474 
-2.1397772234 -1.2827741739 -0.88632141244 -1.5532362841 -0.28655941835 0.30786012577 -1.2308208966 0.079693628238 0.27630300939 
-1.7022343555 -0.065296014606 0.312594633 -1.2444048524 -0.30387624958 0.4245965234 -2.1349978507 -0.74733873194 1.2018002959 
-0.96845056586 -1.1852548759 -1.3748689036 -1.6526675864 -0.64205173874 -1.1188849521 -1.5771145442 -0.13426776291 -0.74339600251 
-0.30986308982 1.2771225273e-06 -1.2346440593 -1.428875921 -1.0377206286 -2.0211046464 -1.9886188192 -0.16639280027 0.20969600895 
-1.5407427146 -1.0564407584 0.82461953759 -0.95312791431 0.38808675419 1.1140474396 -1.6017956194 -0.0005467149286 0.48139154723 
0.056248059463 -2.4486498671 0.44385289643 0.41689940697 -2.708528373 0.40170846038 -1.5435782799 -0.97758676298 -0.60819962814 
-0.51521419815 -1.8997964148 0.58057213358 -1.302307065 -2.982281015 -0.080244496843 -0.35895546069 -0.6833297143 0.79829703309 
0.17395128316 -5.0724609651 0.077951894441 -0.41717045058 -4.1572778145 -0.28322348234 -0.57438648298 0.10571697504 1.9449345867 
-1.6910821105 -2.2653267592 0.33193214825 0.21473392357 -5.0123582641 0.068108244755 0.16876018074 -4.7183682439 0.058898587759 
0.31547315168 -3.7638122528 -0.044415683526 -0.71003512856 -2.7289305869 -0.46751031643 0.058680871429 -2.8287576589 0.045547933308 
0.16344386061 -4.4643827588 -0.017415960987 0.074366098623 -5.1986151341 -0.050418821761 0.25384073355 -4.7544336274 0.17241674011 
0.059418024368 -3.5444987176 -0.031272505598 0.076640925111 -3.9541736401 0.10320659121 0.04134756821 -4.033306394 -0.08287093545 
-0.13936178966 -2.6929528875 -0.21678328618 0.15667492537 -4.6377765964 -0.10133536616 0.23932458552 -4.1530492276 0.20630492803 
0.35740000355 -3.4944086355 0.14911945441 0.22046801916 -4.4171638237 -0.32338904891 0.19676753925 -3.6403851012 0.084413093992 
0.33608320624 -2.8992394452 0.13167594399 0.40188702229 -1.7441329677 -0.016181567435 0.21518626253 -1.8986708503 0.011322552554 
0.016660622419 -3.2675731616 0.088033881292 0.29055684 -2.8503122505 0.25927279353 0.11519638312 -3.5416701758 0.088665293557 
0.28781550553 -2.4044871509 0.058662021868 0.23870502471 -3.4682535965 0.19222737477 0.10267482513 -1.594763762 -0.19517323944 
0.015223114265 -2.8321979127 0.25958377205 0.18489009078 -1.5760317247 0.0014635939464 0.23489882922 -1.7650824366 -0.13204949812 
0.25938666638 -1.5394165327 -0.2191742085 0.49440541814 -2.1537145132 -0.22959921207 0.35834652885 -2.0305597119 0.080676210079 
0.22222929899 -1.7845720246 0.14113912505 -0.17014643136 -2.5203271105 -0.035750973374 -0.051943295839 -1.7667093135 -0.11001978227 
0.295068414 -1.6875318386 -0.0052788371258 0.21981940152 -2.2435367753 -0.082474565088 0.3031111556 -1.3979522965 -0.2838836114 
0.38814740194 -1.173622206 0.13434485238 0.42679544417 -1.4222894042 0.00044991290046 0.42798207914 -1.3946545823 0.11745209044 
-0.047482074108 -1.0534845349 0.0089838701918 0.32853108669 -1.1675328832 0.15443445159 0.052835159113 -1.5565271522 -0.11714093761 
0.28019987611 -1.4653964654 -0.00059847748736 0.44438449524 -1.4793333704 -0.23285524434 0.43469519329 -1.3739980417 0.058494685621 
0.18654917527 -1.80492319 -0.30700206983 0.45605493391 -1.0383358134 0.071904067864 0.26862935653 -1.3243496811 -0.00074262516151 
0.35736886696 -1.8017421177 -0.013940985634 0.31686307793 -1.6166307589 0.26403588018 0.27948700076 -1.5088606768 0.40037810531 
0.25851806286 -0.85171630179 -1.5004342248e-05 0.22800089217 -1.3447039525 0.06662186763 0.089369296677 -1.4177154596 0.24039055686 
-1.8533141399 1.0220355145e-12 -0.03568265697 -1.3879028835 -3.8078142233e-12 0.11425638133 -0.33145390734 2.3271805951e-12 -0.38975707726 
-1.3502238072 1.7866139276e-12 0.33684792814 -0.62337903247 0.21401970781 -0.0071708940406 -0.90786420989 -8.1506000905e-13 1.1914040248 
-1.467907029 -2.2766601089e-11 0.13022432817 -0.72483654253 1.1712746944e-09 0.24153183111 -1.08968022 -0.053990395555 -0.42739873308 
-0.71959930699 3.7124300381e-12 -1.3054105795 -1.3030783682 9.3703057205e-13 0.27391104517 -0.63504870831 -0.11228877313 0.20048422846 
-1.1066137109 1.9556464942e-12 -0.2015082731 -1.613369103 0.0046867489941 0.49996005716 -0.76159651896 -0.19030894624 0.25827469827 
-1.7280603728 -0.0047135498324 1.215308845 -0.15159130519 -0.15384551854 -2.4305082765 -1.4188122754 -0.54966882978 -0.93744653851 
-1.5880678259 0.19674448006 -0.27293148485 -0.88211453266 -3.7037403679e-09 0.25456425614 -1.4079323276 -0.035697544452 0.3868525834 
-1.6313723963 -0.29656457284 0.39612210855 -0.97013255987 5.0702299456e-12 0.48327141103 -0.26887162207 -0.1382102558 -0.0028057668939 
-1.3090492183 -1.477031437 -1.4658284036 -1.4625718382 -0.17724565815 -0.33630692646 -0.50223052012 -1.7485576367 -0.96176924916 
-1.4508528699 0.079526097828 -1.3990056688 -1.6943432397 -0.14002066666 0.13447463454 -1.0904966339 -2.2357621634 1.3107995383 
-0.77666731795 -3.2387025855 0.85993164196 -0.13513909097 -1.2576613643 0.19944208285 -1.0076566816 -1.9849870253 0.060534371428 
0.044403304712 -5.1721366124 -0.17373008475 -0.1031995589 -2.4311695092 -0.29226737373 -0.41994833159 -3.1369093123 -0.31241857139 
-1.3490052476 -2.0748058829 0.90682501626 0.066356226354 -5.060286445 0.32547677574 -0.55678918336 -3.5376882297 -0.17973330346 
-0.17341610718 -3.1012452774 -0.33233076024 0.034407069316 -5.1013492301 0.0090887752217 0.082115349309 -3.9460551661 0.032879564602 
0.17640838494 -4.4739566395 0.083381983705 0.18892213706 -5.0549475635 -0.08242846882 0.10224309163 -4.9925697905 -0.025317075686 
0.33994438005 -4.3848703033 0.22942603256 0.17921306298 -4.104735728 0.011012831955 0.22420927814 -4.5159937243 -0.098060357184 
0.25737694874 -3.244709908 0.18055390486 0.27067753621 -4.707356222 0.094411092601 -0.15797951692 -2.6910949296 -0.063751375319 
0.067808584697 -4.2376144547 0.064633440912 0.027564125552 -3.4326707625 -0.036803195469 0.1292011922 -3.2717623645 0.16565109357 
0.042942972055 -3.7017035665 0.090997037083 0.034953433091 -3.7054695512 0.18838508084 0.35193316739 -3.2568827948 0.29471491617 
0.37805143945 -2.4866259725 -0.14652370883 0.18705916878 -1.4943086713 0.0089494661803 -0.093274920653 -3.6595558988 0.093209567261 
-0.054052934691 -2.5307741759 0.095546902645 0.52555364295 -2.8759380369 0.070422933704 -0.036509431816 -1.5970509873 -0.13345478339 
0.39841493523 -3.0173526847 -1.0029054491e-05 0.32838175031 -1.8750077854 -0.21315851318 0.03066299798 -1.7415083192 0.066715357533 