# vtk DataFile Version 4.1
vtk output
ASCII
DATASET UNSTRUCTURED_GRID
POINTS 1274 float
0.742806 -0.595774 0.011159 0.72643 -0.377979 0.0939192 0.778343 -0.822675 0.276668 
0.770316 -0.872854 0.0588501 0.689641 0.110042 0.0323388 0.748955 -0.0440286 0.089014 
0.799831 -0.648083 0.209092 0.77405 -0.20185 0.2865 0.662015 0.194041 0.0399108 
0.679936 0.129812 0.0923175 0.7879 -0.388937 0.213639 0.720106 0.0411244 0.265754 
0.613865 0.293745 0.0335007 0.592971 0.362961 0.0392326 0.64712 0.232913 0.149649 
0.673597 0.167346 0.202386 0.596041 0.34872 0.21233 0.562822 0.434842 0.0387205 
0.628426 0.253186 0.0783999 0.766891 0.0810232 0.108855 0.605239 0.333193 0.136471 
0.745345 0.152126 0.205865 0.56659 0.4156 0.265121 0.639626 0.231011 0.221201 
0.530171 0.498199 0.0326556 0.616566 0.28695 0.189611 0.541958 0.48809 0.260297 
0.505928 0.559731 0.0386127 0.660217 0.421802 0.098476 0.577439 0.399711 0.106363 
0.572782 0.562638 0.0648647 0.567676 0.40227 0.175296 0.567338 0.464498 0.193193 
0.632836 0.549268 0.0975597 0.686911 0.464611 0.0477104 0.551115 0.479236 0.108519 
0.73277 0.417195 0.10501 0.523604 0.512039 0.176271 0.616392 0.415155 0.214239 
0.485341 0.608768 0.0791622 0.599829 0.49968 0.0359956 0.615733 0.443541 0.148223 
0.501783 0.574788 0.18777 0.509358 0.555333 0.264839 0.51415 0.554077 0.117093 
0.678032 0.537839 0.0492774 0.486397 0.623453 0.243356 0.478974 0.61733 0.142223 
0.755128 -0.764068 -0.0219144 0.569767 -1.29018 0.282111 0.546801 -1.3369 0.0367978 
0.538715 -1.35114 0.213026 0.659811 -1.34789 0.407051 0.571133 -1.36939 0.397508 
0.810313 -1.24931 0.18512 0.852306 -0.910387 0.206094 0.627793 -1.34031 -0.160661 
0.825627 -1.29417 0.113232 0.793402 -0.197606 0.0255963 0.734906 -1.30566 -0.0730723 
0.830907 -1.27542 0.0109564 0.796442 -1.25797 0.334218 0.817891 -0.89217 0.295088 
0.81327 -1.13835 0.213284 0.848676 -0.967219 0.0991143 0.7344 0.00957098 0.0354694 
0.820203 -0.611173 0.0918812 0.861756 -0.448919 0.198583 0.877999 -1.2386 0.0574964 
0.776957 -0.407868 0.27902 0.771214 -0.169178 0.128529 0.744252 -0.0773921 0.202001 
0.768276 -0.412489 0.156126 0.758535 -1.18617 0.293458 0.79512 -0.276075 0.131069 
0.871025 -0.51067 0.127977 0.758687 0.0770556 0.0396724 0.761825 -0.508857 0.00971556 
0.820341 -0.215384 0.156272 0.715843 0.0427925 0.100927 0.675747 0.140179 0.269686 
0.852681 -0.381793 0.277345 0.892011 -1.02207 0.282416 0.882396 -0.625537 0.224761 
0.753883 -0.208522 0.21751 0.831771 -0.54677 0.221053 0.736858 0.155664 0.0587091 
0.801698 0.161576 0.0319539 0.862982 -0.181157 0.0304187 0.71242 0.070654 0.164319 
0.834194 -0.233727 0.0796856 0.759748 0.10274 0.259008 0.692178 0.100398 0.224783 
0.679981 0.268259 0.0373262 0.646725 0.410133 0.0326162 0.723746 0.323355 0.0331266 
0.674482 0.293341 0.107634 0.714647 0.232646 0.196316 0.707519 0.200264 0.113021 
0.688586 0.239873 0.265487 0.619425 0.296859 0.261463 0.759519 0.172625 0.268124 
0.779187 0.210216 0.187637 0.662132 0.345641 0.0323942 0.655433 0.357593 0.0941096 
0.730366 0.260858 0.0867586 0.657888 0.386088 0.162474 0.680309 0.298062 0.215542 
0.692728 0.351571 0.264172 0.629548 0.377309 0.267232 0.753365 0.254808 0.252177 
0.776269 0.426301 0.038837 0.748124 0.351496 0.0848955 0.708922 0.34767 0.132376 
0.609498 0.465235 0.268981 0.801725 0.487018 0.156539 0.743362 0.433081 0.267884 
0.704216 0.40739 0.218652 0.675086 0.454531 0.264218 0.7465 0.378894 0.172411 
0.637987 0.484035 0.205192 0.857348 0.454403 0.0469393 0.80536 0.388271 0.09986 
0.740328 0.510052 0.0341942 0.631238 0.48312 0.0964667 0.682695 0.454291 0.153761 
0.629187 0.539477 0.26092 0.708686 0.479763 0.207118 0.684681 0.542161 0.20573 
0.73315 0.498258 0.266081 0.826038 0.518337 0.0362993 0.605604 0.519271 0.148932 
0.76559 0.517739 0.205579 0.577835 0.529379 0.210146 0.733279 0.492599 0.141097 
0.673421 0.519884 0.140336 0.490172 -1.35601 -0.104648 0.775318 -1.01582 -0.0473979 
0.600434 -1.40919 -0.382074 0.368006 -1.34284 0.263604 0.597991 -1.36186 0.465055 
0.376884 -1.40799 0.186899 0.56526 -1.35342 -0.2689 0.760095 -1.30208 -0.299698 
0.606266 -1.29012 -0.0210853 0.875907 -1.24587 0.38404 0.678789 -1.28342 0.362696 
0.481271 -1.3366 0.293444 0.556376 -1.41179 0.33842 0.541674 -1.35466 0.139783 
0.766544 -1.23105 -0.0230442 0.560227 -1.34702 -0.0743252 0.883215 -1.09755 0.292958 
0.761321 -1.37099 0.0723564 0.615546 -1.25708 0.251849 0.768427 -1.28585 0.1527 
0.849579 -1.16171 0.27692 0.848722 -0.829363 0.0186148 0.800585 -1.156 0.0981079 
0.839331 -0.599972 0.163655 0.825418 -0.848326 0.147785 0.862376 -0.723663 0.277513 
0.982487 -1.15656 0.413309 0.943794 -1.24508 0.354005 0.792616 -0.765595 0.18696 
0.863638 -0.756487 0.172209 0.853416 -1.10662 0.152887 0.824576 -0.457426 0.0317872 
0.778128 -0.397783 0.000381571 0.831437 -0.282662 0.219487 0.764639 -0.117572 0.268619 
0.839842 -0.181711 0.269407 0.732977 0.00308624 0.212602 0.910627 -0.992341 0.207583 
0.922072 -0.515114 0.16771 0.794634 -0.060789 0.0347715 0.861798 -0.325077 0.170529 
0.81384 0.0217193 0.0397157 0.728578 0.219666 0.0315455 0.829822 0.138901 0.260395 
0.835415 0.212534 0.26543 0.797887 -0.118412 0.150271 0.708329 0.138792 0.147199 
0.779615 0.267322 0.0388564 0.756847 0.00205339 0.147713 0.760047 0.317415 0.213916 
0.725523 0.290514 0.156169 0.778009 0.143589 0.141968 0.758516 0.361335 0.269173 
0.786889 0.0570364 0.197311 0.712221 0.390775 0.0353923 0.83798 0.389233 0.0336192 
0.841531 0.309874 0.0351744 0.784538 0.349761 0.0328704 0.799455 0.315652 0.0871789 
0.769431 0.232802 0.128379 0.828839 0.115829 0.190487 0.757587 0.444591 0.180968 
0.884395 0.504323 0.0962639 0.930558 0.451551 0.0785627 0.839677 0.451934 0.114099 
0.77046 0.331672 0.139588 0.833903 0.349576 0.257349 0.902134 0.505843 0.192302 
0.809473 0.480698 0.260315 0.81333 0.367494 0.169297 0.815066 0.255876 0.216456 
0.799848 0.406864 0.230471 0.983317 0.360712 0.137604 0.95215 0.42479 0.13736 
0.781843 0.488581 0.0901198 0.922449 0.431327 0.208784 0.855021 0.448997 0.186924 
0.936132 0.370667 0.217218 0.505131 -1.41529 -0.336278 0.495479 -1.40606 -0.26773 
0.330563 -1.4135 0.0670973 0.80063 -1.27095 0.53136 0.0456663 -1.41171 0.212644 
0.481675 -1.34636 -0.0152156 0.621056 -1.28436 -0.362916 0.395858 -1.34976 0.0912115 
0.340949 -1.35419 0.532562 0.746064 -1.40639 0.211295 0.379305 -1.41314 0.4102 
0.642657 -1.35936 0.532511 0.419721 -1.36314 0.221762 0.743534 -1.36444 -0.114343 
0.664694 -1.32792 -0.0361179 0.549729 -1.41429 -0.088486 0.631534 -1.34461 0.208432 
0.691964 -1.2783 0.429246 0.318934 -1.37521 -0.0519549 1.00665 -1.4142 0.304683 
0.570347 -1.40735 0.252105 0.872459 -1.0704 0.0668611 0.79051 -1.25952 -0.0876867 
0.689171 -1.27285 0.0913046 0.911129 -1.2693 0.154929 0.86573 -1.33556 0.150225 
0.869393 -0.855653 0.254105 0.694708 -1.28799 0.293973 0.669778 -1.27859 0.201701 
0.835346 -1.30324 0.214722 0.965939 -1.3726 -0.0275137 0.541745 -1.36193 0.296344 
0.881152 -1.03997 0.130509 0.803059 -1.22194 0.0593942 0.78287 -1.31371 -0.0255661 
0.841051 -1.33048 0.0562715 0.883782 -1.26415 0.309767 0.870964 -0.284818 0.275569 
0.862499 -1.16686 0.127192 0.859207 -0.672291 0.114913 0.866284 -0.0795216 0.0395736 
0.904154 -0.950266 0.126963 0.861468 -1.17395 0.0558533 0.899246 -0.86402 0.16817 
0.875786 -0.804717 0.208225 0.86225 -1.20798 0.195953 0.780327 -0.026349 0.261314 
0.806855 -0.163229 0.207847 0.843688 0.101079 0.0372517 0.898614 -0.151424 0.0740127 
0.802323 -0.388895 0.107404 0.878636 -0.333653 0.100722 0.826498 -0.132053 0.082573 
0.823177 -0.0653003 0.101307 0.830527 -0.000331135 0.16352 0.933247 -0.772057 0.206836 
0.801061 -0.0464656 0.201364 0.897296 -0.354343 0.216799 0.874811 -0.195724 0.118399 
0.909736 0.418182 0.0300683 0.843716 0.224647 0.0383851 0.89751 0.353614 0.0368468 
0.807071 0.0252825 0.109219 0.827676 0.176448 0.0946396 0.844262 0.0815365 0.12655 
0.801537 0.296191 0.268033 0.830953 0.178747 0.171457 0.856608 0.051793 0.192995 
0.828746 0.256712 0.104504 0.854633 0.329719 0.125765 0.951808 0.384679 0.0766575 
0.880398 0.399725 0.0913082 0.80785 0.287371 0.159445 0.877836 0.157964 0.210559 
0.934678 0.225202 0.126334 0.862814 0.309621 0.199365 0.857013 0.240414 0.165365 
0.885766 0.480253 0.263608 0.994177 0.347792 0.0338888 0.937226 0.296354 0.168447 
0.921659 0.326603 0.106982 0.893659 0.383251 0.16391 0.87557 0.407227 0.254121 
0.321294 -1.41153 -0.112221 0.117949 -1.4142 -0.0284383 0.212769 -1.41021 0.442765 
0.314469 -1.41424 0.260944 0.228122 -1.40822 0.528365 0.282728 -1.41552 0.472398 
0.246966 -1.41063 -0.243522 0.42234 -1.4065 -0.32175 0.608195 -1.34619 -0.403472 
0.0336839 -1.40911 -0.237602 0.312796 -1.41294 0.147138 0.536097 -1.4091 0.467291 
0.299425 -1.40321 0.340548 0.508759 -1.4087 0.395792 0.307731 -1.41182 0.531849 
0.708114 -1.34497 -0.257925 0.424008 -1.35653 -0.271874 0.451867 -1.4147 -0.198951 
0.832984 -1.41001 -0.21081 0.679441 -1.38593 -0.16733 0.441066 -1.4137 0.130445 
0.496529 -1.35415 0.355616 0.717869 -1.33189 0.47596 0.417537 -1.36609 0.317265 
0.792087 -1.40619 0.374079 0.613288 -1.35737 0.121044 0.624134 -1.40789 -0.0841215 
0.670482 -1.41419 0.125855 0.665195 -1.33767 0.0673667 0.761856 -1.35403 0.419049 
0.720939 -1.33953 0.364902 0.695612 -1.35615 0.265028 0.875748 -1.34052 0.517593 
0.5685 -1.32059 0.342981 0.792928 -1.29759 0.275011 0.902861 -1.29786 -0.0119493 
0.889306 -1.10425 0.00641567 0.580024 -1.29394 0.183609 0.786316 -1.37578 -0.0557227 
0.790099 -1.23277 0.250575 0.806164 -1.36076 0.161027 0.845359 -1.30293 0.363051 
0.854052 -0.970626 0.0257737 0.901889 -1.15135 0.180324 0.868407 -1.20686 -0.0174451 
0.844858 -0.638967 0.00519859 0.923339 -1.27088 0.0928454 0.898543 -1.19404 0.331149 
0.950064 -0.883328 0.238209 0.872386 -1.25758 -0.0742074 0.902149 -1.07791 0.229176 
0.918672 -0.707748 0.256022 0.940802 -0.106736 0.0382635 0.833867 -0.334612 0.0346163 
0.875004 -0.820144 0.106105 0.890392 -0.595598 0.122136 0.948488 -0.936882 0.177722 
0.889036 -0.498261 0.269817 0.908301 -0.946291 0.281009 0.827641 -0.082312 0.276791 
[...]
POINT_DATA 1274
FIELD FieldData 10
VELOCITY 3 1274 double
-0.15246856505 -3.9282741487 -0.16092244279 -0.19371355472 -3.2932312178 0.026705773049 0.179301001 -4.5214696197 0.033038462214 
-0.03008728442 -4.6600864209 -0.16926484585 0.50934683976 -1.2369849126 0.0027269707928 0.36311077706 -1.9507630642 -0.17132446351 
0.20977332259 -4.2652240318 0.23789527621 0.27306775961 -2.4101830683 0.2262727546 0.67501010652 -1.6393103326 0.00039297090808 
0.59750255324 -1.5777163801 0.15101002498 0.33817558782 -3.3889452111 0.0044830103828 0.48846575176 -1.2962499029 0.0041409646107 
0.58600226014 -1.1575042692 -0.30768828885 0.5266358502 -1.2870921274 -0.0018099050559 0.53515646147 -1.2993861002 -0.19478569079 
0.48050376152 -1.1681627485 0.023075578886 0.51889457947 -1.249839804 -0.20145605632 0.53668905094 -1.2999715794 0.0005817281432 
0.43189861934 -1.0846697466 -0.1609193319 0.88522011476 -1.9519752015 0.019671773271 0.45569899763 -1.2944151482 0.025240933143 
0.45667963439 -1.427343428 -0.17093452587 0.52767732842 -1.2814293494 -3.7827808819e-06 0.44984062087 -1.0828546225 -0.15253097134 
0.52600319197 -1.2774363704 0.0012671686118 0.53093237864 -1.2877903654 0.021170384861 0.51221572464 -1.2439525302 -0.00023448910893 
0.50566202536 -1.1905593993 -0.13874192469 0.4503740869 -1.2757687231 0.04515175184 0.53565062806 -1.2990795197 0.0088594638036 
0.47963018739 -1.2332891086 -0.010279682809 0.47798255128 -1.1566156435 -0.0037725892408 0.70877876129 -1.0990965238 -0.18437847998 
0.43289427014 -1.2159468335 0.11349372379 0.57806968196 -1.3082166408 -0.038083123386 0.52895129855 -1.285531458 -0.014845106597 
0.40841583988 -1.4711211058 0.064418716802 0.47965366146 -1.1648732303 -0.11189464535 0.42815246723 -1.2175856839 0.011210017797 
0.52828545869 -1.2841175849 -0.009376643842 0.50039540858 -1.2877354937 -0.0045580770208 0.57106332846 -1.3150716726 -0.0042526434592 
0.48637795584 -1.1812036603 -0.0027231736662 0.51203013281 -1.2435017674 -0.00013910733442 0.5320003319 -1.2912499531 0.037319272194 
0.35781741339 -1.2873980275 0.052762845239 0.50616697302 -1.2292627409 0.051277616528 0.52008056325 -1.2630528534 -0.10216774481 
-0.003988882379 -4.3552820637 -0.24874007945 -1.9915132381 -0.11951023441 -0.052996207289 -1.5091853233 -0.96086747558 -0.36563649053 
-2.0111049592 -0.24781288755 0.30874699498 -1.3358604875 -0.46397643643 0.63194398523 -1.2146687059 -0.35151926478 0.020465042256 
-1.2577686681 -2.2764526144 0.53048972499 0.19735235712 -4.8625114379 0.11463197186 -1.04185356 -0.69321415112 -0.96246331073 
-1.6843649846 -2.5901081857 -0.7883555563 0.5317440903 -2.4955272311 -0.14424643924 -1.3517789204 -0.22946398892 -0.67478964551 
-0.57979103425 -1.5021955062 -1.4511480043 -0.87120726897 -0.93319220762 0.95633737853 0.20695121899 -4.5547932587 0.12465141833 
0.16066103907 -5.1379032829 0.16428051419 0.034287341507 -5.2734215007 0.066544075268 0.65955223149 -1.6310917801 1.0207874237e-06 
0.33584004964 -4.0910468186 -0.093306409978 0.42651947685 -3.8264236291 0.15391744368 -0.55120173096 -2.5802272978 -0.28904124147 
0.23105666325 -3.2735372311 0.084859288148 0.4685957547 -2.7501294203 -0.12368274186 0.26130833414 -2.3472001017 0.24782151176 
0.2054185905 -3.3912305719 0.03198138079 -2.0210139904 -1.8047977797 0.54048356881 0.47552597255 -3.0129536157 -0.06690859281 
0.4168159827 -4.0878197879 0.17231172559 0.56662457955 -1.5982118498 0.014348333538 -0.079201179854 -3.8859743903 -0.18808017675 
0.4489794873 -3.003757124 -0.06018070892 0.70932239433 -1.7226414605 0.04641428671 0.51160474833 -1.4750885873 0.0041856171177 
0.42246435545 -3.4657023779 0.13690787984 0.096733606913 -5.2144797356 0.20205337863 0.12724385967 -4.3541286448 0.16889246894 
-0.018813349479 -2.7941009801 0.11151285895 0.39919464943 -3.9859651031 0.14113258781 0.77364785073 -1.635458641 0.22363105599 
0.66908879227 -1.4487999362 9.1161369471e-05 0.52155699311 -2.9753828973 -0.22248677836 0.68859110076 -1.6722914133 0.023162834124 
0.61097798816 -3.2612170989 -0.26153565763 0.55128368141 -1.4035637216 -0.1266729489 0.56574956103 -1.3739632816 -0.10857796092 
0.56440092128 -1.5355335352 -0.046606382223 0.52620464343 -1.2816170654 0.0014072379627 0.4464931999 -1.4766074536 -0.0066524887147 
0.59169664782 -1.2608910577 -0.1630441667 0.68237147935 -1.2955435113 -0.04803998276 0.42345776567 -1.6825850323 0.082016710056 
0.43985091274 -1.3269579113 -0.04683703238 0.44724292807 -1.0854257151 0.011574604866 0.43583278483 -1.3662379495 -0.12089321689 
0.64726510892 -1.3875078196 0.0792558559 0.51966938646 -1.290227952 0.0040898780679 0.40776021755 -1.2706177923 -0.0059483914549 
0.48568939723 -1.6492337272 0.073741282172 0.43206306972 -1.2683485154 0.041924111003 0.51721276438 -1.2985443512 0.061380918886 
0.45627735951 -1.2243214906 -0.0045292331932 0.42755982304 -1.2870858659 -0.019145810677 0.55008010391 -1.4581679072 0.19259165701 
0.3108628704 -1.3644654146 -0.0013012405121 0.42646536363 -1.4929548437 -0.018578728128 0.44577712173 -1.2259265576 0.014228976358 
0.51203208632 -1.2660524592 -0.02299972498 0.21877472609 -1.1619541433 -0.11409757507 0.37083608219 -1.0851153614 0.00042571671109 
0.49852921678 -1.3211658751 0.020600526824 0.51177539435 -1.2779482938 -3.1395080874e-06 0.5944778659 -1.5686218676 0.17770013776 
0.5113243557 -1.2289300112 0.064179267595 0.5111838845 -1.3619803188 -0.067630198398 0.34543399763 -1.3807853234 -0.014737929482 
0.47630933403 -1.0100498804 0.00012158026182 0.48635839166 -1.2605766729 0.011172344003 0.50545849771 -1.2983667598 0.0021729999097 
0.48886730786 -1.243297087 -0.0048328985582 0.5098179523 -1.3378151713 0.028261591723 0.63706971418 -1.2926454838 0.06389583661 
0.40666408943 -1.0781129606 0.098369672491 0.58734352169 -1.314182233 0.0011245886204 0.4229199543 -1.2461982988 0.1001463395 
0.4227993472 -1.2048871822 0.062903596214 0.46996416795 -1.1039460385 -0.030196392284 0.47223376615 -1.2314482859 0.069265070054 
0.53929698966 -1.2896541712 0.016457858815 -0.89724077852 -0.10986823336 -0.60978534801 0.057383606976 -4.9018087174 -0.30977421271 
-0.26760604155 -1.5398550119e-05 -0.22032901017 -1.9499815875 -0.7272494998 0.088991355836 -1.0091699248 0.060583489902 -0.09965837352 
-1.2369411099 4.3129739883e-10 -0.06343799556 -0.90490283363 0.018786523432 -0.40614626365 -0.69569784456 -0.15228180539 -1.0457036161 
-1.6523395385 -0.55784777205 -1.6473573783 -0.14105787177 -2.5469953134 1.0233563482 -1.1544051648 0.36161222793 0.8329731543 
-1.3861480468 -0.34763632387 0.15848923777 -1.3351110606 1.2134626497e-13 0.17230395514 -1.9895951291 0.075283400501 -0.34298435416 
-1.0531933955 -2.1152381079 -0.79771939609 -1.5997813956 0.37722213136 -1.1017224806 -0.25473584851 -3.5767494066 0.18754269423 
-1.5445840034 -1.2777578217 -0.29446322088 -1.7863789706 -0.21331078672 0.13470995466 -1.5644712308 -1.2576380258 -0.32299047614 
-1.4514750593 -2.5924421504 -0.49077950386 -0.051739728517 -5.0179031474 -0.091095837716 -1.0795729461 -2.7997535363 0.23926684092 
0.25126981938 -4.2779622759 0.12003190203 0.10167637844 -4.7736215497 -0.0021814012556 0.34903727567 -4.5253746498 0.061614643025 
0.52740551351 -5.3731422535 0.54497139422 -1.036753362 -1.5858771728 1.7661154946 0.2128959807 -4.4348384979 -0.11318448423 
0.10917954708 -4.7152327647 0.12419201338 -0.66676617526 -2.5903853519 0.015742562932 -0.077527821599 -3.8609352167 -0.054762897691 
0.054976149646 -3.6277193697 -0.23987363012 0.25307957361 -3.3219163951 0.059598039487 0.20512258 -2.3960147428 0.27320055721 
0.5190337758 -2.7659505988 0.060232645226 0.76028807677 -1.8963253645 0.42061766425 0.17461130963 -4.9925997926 0.17803541022 
0.38605287591 -4.2331140538 0.092493461332 0.4705261841 -2.2198188399 0.00043556842405 0.4490746713 -3.5393151525 0.22001375442 
0.46362972028 -1.7302222965 0.0021673536185 0.43986083033 -1.7578644691 0.00017642838188 0.50119615639 -1.3532603813 -0.067446460922 
0.16735667423 -1.4425251325 -0.0066816467251 0.22765922969 -2.6501856943 -0.043119578406 0.47055978795 -1.6182629496 0.22496495973 
0.41497340384 -1.6945112598 -0.035372743478 0.49241473295 -2.3864709162 0.238979961 0.39542302658 -1.1590002338 -0.15214347829 
0.59623977068 -1.26742535 -0.19332694356 0.46185672507 -1.7659972862 -0.12478067242 0.47462998912 -1.2742760302 -0.00090827223994 
0.37340500625 -2.2602994822 0.21851627411 0.39070119357 -1.5127353175 0.015493083801 0.37867817986 -1.3051035921 -0.1378439132 
0.51058608336 -1.6542366464 0.00036475325306 0.47445172176 -1.4355381276 -0.0053894641031 0.4346435162 -1.5649144898 -0.069183431546 
0.52281558072 -1.7029132777 0.012247645181 0.49823083007 -2.0308679054 0.023263690804 0.32001282953 -1.3532048929 -0.31793723469 
0.68096444102 -1.6734481599 0.10785903972 -0.02512217106 -1.4461379994 0.25742017979 0.15334644079 -1.2593626544 0.0041217971004 
0.70497420869 -1.3157883175 0.011726987464 0.48030225516 -1.0753770521 -0.23029689755 0.75499289482 -1.466496317 0.014758127097 
0.52970087392 -1.2344204562 -0.0007199956964 0.72456846075 -1.3495388194 0.034533244541 0.4820793483 -1.377344451 0.050731979156 
0.26235335557 -1.1520920193 -0.11511789842 -0.14887005925 -1.8076399714 0.23405101005 0.36759176676 -1.5264607129 0.12764129616 
0.33203979562 -1.3110831868 -0.1104538186 0.25459735051 -1.2259634246 -0.15348793227 0.24812597717 -1.0792263788 -0.061214086713 
0.21732287167 -1.2443987863 -0.068699464688 -0.50392879899 8.5780608596e-10 0.064088634004 -1.0257925571 0.010908159632 0.024419930449 
-1.1706653251 6.4239675371e-08 -0.081358036314 -0.23661095236 -0.0059645600499 -0.021387524 -1.5455015731 1.2965230342e-12 0.020109043086 
-1.5088294379 0.042933115594 -0.37953172749 -0.89525301794 0.17185071551 -0.081688556776 -1.5643856613 0.068746324365 -0.15239796048 
-1.1786535724 0.21613163763 -0.015305820889 -1.5447374396 0.0025556687186 -0.28896246422 -1.2799456534 -2.2768456044e-07 0.33055048145 
-0.28186582012 0.085861905499 -0.022064780143 -1.2944096931 -0.047931827918 0.27610633363 -0.80707339126 0.27120030577 -1.3314191174 
-1.7255084124 -0.88209478657 -2.0773112641 -0.88055364758 6.9457790335e-07 -0.49899480412 -1.7965069208 -0.13148363365 0.071203268413 
-1.2821097626 0.24326904997 0.26472213392 -1.4747547685 -0.37678846295 -0.067669960172 0.099213754365 -0.0065109305985 0.16538943772 
-1.131256555 -0.0058227333553 -0.0005107462128 -0.086854665907 -4.4602363286 -0.35944499997 -0.49915458381 -1.2535930774 -1.2792357369 
-1.6852392717 0.17801932835 -0.1988389903 -0.095114467638 -2.6526326003 -0.65221027475 -1.194142778 -1.7846076792 -0.20977177435 
0.31530300506 -4.7865640518 0.04811261641 -1.3473388675 -1.135850951 0.4340946896 -2.1363200446 -0.69764243573 0.43057400411 
-0.9708276772 -0.32964553657 0.28411240013 -0.49971251826 0.15176850248 -0.31413062766 -1.506885562 -0.6295525034 0.45046034573 
0.069862731906 -5.2474886993 0.082418224437 -0.81747579816 -2.9016656892 0.094743703073 -1.4773988059 -1.2765923914 -0.66916693809 
-0.43121363616 -1.3897276465 -1.2215455579 -0.76414430997 -1.6064144631 1.2044996856 0.042420627162 -3.5201915364 0.090747086343 
-0.90514845853 -2.8094510529 0.037921087701 0.12067237263 -4.3676068132 0.11543062291 0.43526619279 -2.4405836291 0.0042253737338 
0.011514551491 -5.1488187605 0.12251810328 -0.8815004691 -2.7547410595 -0.63139585989 0.14934217628 -4.8671875161 -0.0044930985092 
0.1722911332 -4.7948558082 0.01011238187 -0.67829276883 -2.9727961017 0.6835868622 0.17142706492 -2.5741697891 0.041909290811 
0.24303090133 -2.9799817051 0.050467982601 0.051493233924 -2.2642163067 0.00052102770586 0.42668735555 -2.8378345394 -0.23048618476 
-0.046433387681 -3.6337935143 0.10078376596 0.21920010101 -3.7181819391 0.045409479463 0.3672626815 -2.7018573129 -0.12170852435 
0.62326849476 -2.5417939117 -0.21395597027 0.30066645609 -2.6443471337 0.22184013279 0.19898702082 -4.8263873098 0.087236570152 
0.49963460879 -2.7613799977 0.24687460647 0.41059069029 -3.5965060174 -0.082665823017 0.41441511099 -2.9312863365 -0.17747423409 
0.49680448249 -1.4465285058 7.5054025266e-05 0.33954612647 -1.8250981574 -0.010066673291 0.29814374228 -1.3936035296 0.057817840663 
0.57729455697 -2.6189699849 0.10791536717 0.89249691148 -1.9648847371 0.067725273422 0.43140054895 -2.377031507 0.013862828165 
0.26979175472 -0.90793253632 0.0096911362253 0.38673667342 -1.8750685749 0.1377748691 0.36175928433 -2.3953706914 0.058825844401 
0.42673986064 -1.739585358 -0.24901173373 0.44640399861 -1.6319691893 -0.065749308619 0.35097120188 -1.2234556607 0.14452660934 
0.31075470901 -1.1561368382 0.0093166381727 0.43910420365 -1.6795108176 -0.27500147372 0.66582856625 -2.2407571391 -0.48359995836 
-0.015229445403 -2.0858745118 -0.24037488558 0.48699818709 -1.5690997761 -0.07196957483 0.13451020005 -1.8267262436 -0.21967010508 
0.57428160848 -1.1528936638 -1.3625212932e-06 -0.17100737168 -1.572758286 -0.098003050372 0.025514214934 -1.8910501998 0.16758135309 
0.48247056808 -1.7111880402 0.094302933644 0.082651259867 -1.2142659347 0.043320628145 0.38098689999 -1.1464733252 0.056341204872 
-1.1814760264 6.9817028536e-06 -0.28326027889 -1.285842827 8.9170382826e-12 -0.44275862813 -1.1816598906 4.1805493756e-13 0.5375827945 
-1.13974964 1.0871107401e-09 0.21577176667 -1.2127449839 1.4921583081e-12 -9.0547037969e-05 -1.3847197498 5.4933051815e-12 0.12837718559 
-1.7681015649 2.5995976255e-12 -0.36846731018 -0.76055983594 8.7560725763e-07 -0.040502603646 -0.54542093417 0.072232478791 -0.10832210859 
0.015137365356 0.57974300288 -0.2916533789 -1.452807874 1.0141766336e-11 -0.051861798719 -0.94159676517 2.7093480754e-12 0.15301728164 
-1.4965643236 -0.40979248181 0.33921742108 -1.3890780882 2.2139569944e-05 0.14940006787 -0.80366417509 -5.5627840373e-06 -0.012380528853 
-1.2773507878 -0.24989248427 -1.2497180527 -1.2607403965 -0.059785035587 0.03609385794 -1.3970828771 1.2178139538e-06 -0.37085434178 
-0.40913770712 0.0013134211164 -0.2996605326 -0.79348511071 -0.066199384193 -0.54148298835 -1.6859195798 0.0024903710739 -0.16581088067 
-1.5786666542 0.11612707652 0.36472753355 -1.0389805199 -0.065992656079 0.31664025511 -1.5543295023 0.073599935143 0.2534364495 
-1.2165762066 8.0777079189e-05 0.43020797805 -1.9249049327 -0.43376595481 -0.071799078999 -1.1565679313 -3.4608051058e-13 -0.47246315878 
-1.1683204609 3.3745002553e-12 -0.11705935238 -2.2231470138 0.24032840942 -0.61985765959 -1.039626132 0.24970254326 0.25984355944 
-1.2127299959 0.27488497796 0.36968524427 -1.0921958473 -1.3504141812 -0.029469844796 -0.3482966232 0.028459610597 0.61660619252 
-1.3437327356 -0.29590431301 0.07619262007 -0.57718812185 -0.11226976794 0.30909882465 -0.27156952064 -2.2874705087 -0.57632452377 
-0.31616836059 -5.1644622046 -0.25038737777 -1.9858408423 -0.4072905898 -0.11150145673 -1.5007030936 -1.1329801675 -1.0157985195 
-1.7486889608 -0.298806876 -0.49201951433 -1.0086861108 -0.074846522068 0.91966659554 -1.3849427513 -1.5946426841 0.51824845839 
0.059418024368 -5.1124987176 -0.031272505598 -0.5304121871 -3.2214584129 -0.080744263119 -0.63126241031 -3.2045390034 -1.2053881537 
0.10854934787 -4.4099746868 -0.19468929649 -0.37592239204 -1.1946830025 1.212539719 -1.2021392947 -1.4598700846 0.89622950801 
0.013623175772 -5.0903962715 0.20042028425 -0.32346581451 -2.9662949183 -1.6659193946 0.18085621546 -4.8310256276 -0.32278429024 
0.34084560895 -4.511859051 0.04701036904 0.37814128023 -2.6473568429 -0.074859518902 0.054277909989 -3.5472505824 7.6905277277e-06 
0.14433052934 -4.7764532004 0.044478881627 0.2275336727 -4.3713865159 0.030626670959 0.049126185144 -5.074122146 0.012441565387 
0.18782110681 -3.9695509139 0.076249481578 -0.023044652335 -5.0347421722 0.26681832124 0.37793244322 -2.7130433866 0.35005843102 
0.277781529 -4.1210893213 0.092425079505 0.24496720799 -2.8899161396 -0.019907062132 -0.13828126459 -2.7117742548 0.34555430793 
0.069591949481 -2.1413806934 -0.06206989299 0.26327232867 -3.6322526753 -0.098963820781 0.30116789604 -3.3220990767 0.031311924415 
0.071499110526 -3.013464439 -0.082037062634 0.3220674228 -3.7921159174 0.0052622164036 0.37499986196 -2.736803724 0.32958771509 
0.07178790769 -2.6651607316 0.075712219125 0.042514066276 -3.6093716772 0.1594705604 0.090119497429 -2.0759611866 -0.094946401711 
0.27617448608 -1.7570168775 -0.0071495988588 -0.075542949573 -1.7225897255 -0.0045559293626 -0.13246460217 -2.3297646984 0.18713289994 
0.11154126813 -2.1505959001 -0.12230798142 0.37546360434 -1.694946186 0.007881759844 0.1774842877 -3.2818656342 0.35664896376 
0.14088282035 -1.6700969469 -2.2827267824e-05 0.11415909477 -2.1672443914 -0.016440177265 -0.034190667873 -2.0745543406 -0.092504006588 
0.23365037479 -2.5085243999 0.19872182699 0.070702579393 -1.3552305258 -0.0051531017171 0.40682364545 -1.3342477828 0.0032160460193 
-0.3608753452 -2.5661893318 0.18415322006 -0.081201791079 -1.9973932408 -0.23707263966 0.28849007362 -1.883856167 -0.12933559141 
0.056349438244 -1.2208650171 -0.002479947238 -0.14115460525 -2.2978601128 0.16782852226 -0.061943072066 -2.0104476387 0.0044652243434 
-1.0036031778 7.8039639498e-12 -0.15436365177 -1.3753114859 2.626894743e-12 0.12528017518 -0.34186793545 0.00046238869857 0.031428398262 
-1.5783351553 -4.269449356e-12 0.34546075617 -0.74985481763 -2.5525010768e-07 1.789419827e-08 -0.76002907743 1.7275776335e-12 -1.3939606537e-05 
-1.4006934586 5.2040047835e-12 0.056773230693 -0.55513382773 7.7699730102e-12 0.00074868500671 -1.155784566 1.3667857031e-05 -0.33930015738 
-0.60134674454 4.1382445464e-12 -0.31411885364 -1.2785707971 -4.0395207315e-12 0.069470973236 -0.47279557919 -0.02421203556 -0.023571052891 
-1.6864779433 5.5500611635e-06 -0.065721496523 -1.4372573159 -8.5391955973e-05 0.35654760731 -0.28464322938 0.035265555084 -0.047631221976 
-1.4133640898 -2.0413517763e-12 0.27864113538 -0.28973199053 -0.32794899807 -0.10298600069 -1.2151784412 4.7699664765e-05 -0.41124080532 
-1.6255690855 0.041206541334 -0.47801932231 -1.5060163 -0.044170442834 -0.47067765818 -1.5019024831 -5.4125748693e-08 0.194242988 
-1.0195058736 -3.3085912057e-12 0.14875627651 -1.4270782753 0.00012294599805 0.25950957982 -0.35571197326 -0.081982297562 0.10485871372 
-1.2504362958 -0.28770507954 -1.0498192883 -1.5979263429 -0.79097796695 -0.0032222932772 -0.76008622585 -0.25667234911 -0.43418767035 
-1.1167155899 -0.30718208868 -0.43848413532 -2.1156856205 -0.1814134184 -0.20273334899 -1.3216252653 0.099518065244 0.11576703207 
-0.38894190232 -0.67834968135 0.92847208763 -0.48789860303 7.6319562207e-14 -0.047392261414 -1.8170032443 -0.53349368313 -0.26091806196 
-0.98166819572 -0.55088279207 -1.079507374 -0.35429107854 -0.014949719278 -1.13483464 -0.9394373115 0.02732652028 0.46723295987 
-0.85778937037 0.0086299307135 0.17834816245 -0.032327278152 0.19089783407 -0.0013816785147 -1.1650964203 0.14204744993 0.39068739818 
-2.2804099388 -0.44287656495 -0.28145275435 -0.69981569293 -0.52882669079 0.0031129895443 0.17499349828 -4.2668031469 -0.099182744982 
0.70099023122 -0.95164984992 -0.38990648368 -0.10421492553 -0.39942615055 -0.87484584858 -0.63296218246 -1.029225839 0.38350872584 
0.15903361419 -0.91911056125 1.7474494837 -0.66312202057 -2.9294280388 1.2374259673 -0.40434790771 -1.1201612099 0.65389910027 
0.24598826691 -4.8277474911 0.19545324904 2.1980443598 -0.33367674965 1.8071313167 -0.050941075657 -4.1499724008 -0.086910391291 
-1.2402086254 -2.876563218 -0.078173970695 0.00291987047 -5.0176080349 -0.037453801594 0.088984363469 -4.7398169594 0.091897085339 
-0.037026145425 -5.1795924347 0.24837268766 0.035949436889 -5.3717381636 0.16720814631 0.22941494824 -4.8913198741 0.43676564978 
-0.054827729242 -3.9383104018 0.039781200181 -0.38091617429 -2.4068003409 0.015033996107 -0.039442806425 -5.1589444974 -0.078402753549 
0.28503246601 -4.0581421308 0.053666656937 0.20195570336 -4.5925132061 0.11469592368 0.019845551643 -3.2533273187 -0.093483888804 
0.28809529544 -4.5366676844 0.16811989862 0.011976150255 -3.4834415121 -0.14916066976 0.13597763342 -3.0076521601 0.042834874946 