# vtk DataFile Version 4.1
vtk output
ASCII
DATASET UNSTRUCTURED_GRID
POINTS 1274 float
0.273704 -1.29444 -0.0532702 0.273825 -1.30221 0.0958672 0.27947 -1.29493 0.317461 
0.157837 -1.31609 -0.211099 0.298476 -1.29135 0.17813 0.41159 -1.23459 -0.0670805 
0.381489 -1.29109 0.322091 0.470135 -1.23549 0.493055 0.512138 -1.24367 -0.00803865 
0.637012 -1.25332 -0.00559612 0.538912 -1.34673 0.187572 0.641287 -1.22257 0.434266 
0.852402 -1.27255 -0.151223 0.843516 -1.25445 -0.0829329 0.657758 -1.29641 0.158047 
0.755447 -1.27586 0.265877 0.696148 -1.27029 0.218756 0.793908 -1.20789 -0.044872 
0.637075 -1.20753 -0.0559479 0.672395 -1.34643 0.00779156 0.715157 -1.1907 -0.0821487 
0.690719 -1.30816 0.278259 0.391011 -1.23455 0.281837 0.61525 -1.27211 0.224758 
0.912861 -1.23661 -0.0765442 0.30116 -1.25049 0.128387 0.657538 -1.20785 0.363643 
0.814177 -1.19494 -0.113144 0.921243 -1.31394 -0.000308917 0.822968 -1.22932 0.038073 
0.971741 -1.20856 -0.0150781 0.656923 -1.22809 0.0467055 0.557625 -1.21895 0.3785 
1.08236 -1.2228 -0.287853 1.03357 -1.24155 -0.141539 0.503957 -1.22132 0.280682 
0.789892 -1.27879 -0.0125806 0.634926 -1.2738 0.285661 0.405225 -1.25069 0.13782 
0.951753 -1.20266 0.0593748 0.851373 -1.22674 -0.208425 0.79809 -1.23315 0.160133 
0.838191 -1.21213 0.108868 0.748305 -1.22101 0.216027 0.903412 -1.24345 -0.00535382 
0.985184 -1.23822 -0.236529 0.891769 -1.25237 0.29156 0.886763 -1.21792 0.230216 
0.452259 -1.29929 -0.306734 0.167834 -1.33255 0.280787 0.145276 -1.35886 -0.0654327 
0.0370367 -1.33471 0.173652 0.286403 -1.34238 0.471626 0.255861 -1.33816 0.384989 
0.239869 -1.31335 0.164914 0.379629 -1.3534 0.285129 0.153337 -1.34834 -0.272888 
0.359439 -1.41001 0.0556421 0.611838 -1.28941 -0.213218 0.217788 -1.35345 -0.222143 
0.399556 -1.34728 -0.151362 0.371624 -1.35519 0.404628 0.399256 -1.29302 0.394596 
0.278141 -1.3483 0.208902 0.213431 -1.33829 0.00544726 0.485161 -1.26615 -0.187262 
0.413275 -1.3608 -0.0237482 0.583439 -1.34511 0.29987 0.433253 -1.28267 -0.14262 
0.304159 -1.28407 0.243102 0.552686 -1.36026 -0.0194744 0.376692 -1.2737 0.194426 
0.331415 -1.29838 0.0617583 0.330566 -1.26193 0.445499 0.508636 -1.22744 -0.0833869 
0.623493 -1.4128 0.0996258 0.544083 -1.25116 -0.240695 0.212456 -1.28188 -0.175343 
0.568414 -1.356 0.0415119 0.541447 -1.30131 -0.0340674 0.328048 -1.26216 0.297792 
0.451403 -1.28842 0.450309 0.5798 -1.33502 0.469935 0.446541 -1.28094 0.264217 
0.51111 -1.29947 0.291025 0.451951 -1.36111 0.112134 0.615699 -1.30366 -0.0477201 
0.643806 -1.22732 -0.214014 0.972664 -1.28512 -0.284559 0.570373 -1.28632 0.172263 
0.475149 -1.28636 -0.250603 0.764603 -1.28926 0.343922 0.645543 -1.32733 0.220663 
0.577093 -1.23871 -0.0537821 0.999453 -1.26674 -0.0444342 0.741709 -1.25459 -0.060923 
0.684798 -1.29045 0.0494495 0.876476 -1.34917 0.162017 0.603153 -1.25473 0.0797894 
0.780297 -1.23223 0.388045 0.790839 -1.24158 0.464725 0.545526 -1.2631 0.232854 
0.826054 -1.3595 0.207782 0.622029 -1.22508 -0.144779 0.687874 -1.2326 -0.0330651 
0.553126 -1.24069 0.123797 0.732427 -1.23673 0.0212837 0.80846 -1.30048 0.178004 
0.828911 -1.25041 0.340758 0.681251 -1.2671 0.329844 0.80923 -1.22664 0.532537 
0.9126 -1.24742 -0.369684 0.769615 -1.30982 0.0489641 0.437689 -1.25602 0.192616 
0.723893 -1.22675 0.535002 1.16352 -1.22115 0.0117911 0.628947 -1.26633 0.53009 
0.734244 -1.22571 0.317643 0.70492 -1.24514 0.415675 0.578905 -1.24334 0.0154163 
0.958717 -1.29268 0.219452 1.1057 -1.23872 -0.167101 0.838988 -1.3053 0.0442061 
0.976942 -1.22604 -0.0923663 0.90831 -1.28983 0.0617842 0.61632 -1.23686 0.147484 
1.32158 -1.19721 0.526095 0.738705 -1.25644 0.161028 0.940221 -1.22526 0.19379 
0.952365 -1.2083 0.42301 1.21193 -1.26348 -0.182778 0.905116 -1.23208 0.0977601 
1.04508 -1.22587 -0.00801762 0.863858 -1.23344 0.171986 1.10057 -1.25824 -0.0321967 
0.963362 -1.26293 0.0318183 0.0866901 -1.41341 -0.246617 0.285888 -1.36071 -0.213069 
0.430065 -1.40919 -0.397639 0.0351687 -1.35957 0.31544 0.213244 -1.32115 0.482543 
0.0966595 -1.40799 0.156668 0.216642 -1.34413 -0.402017 0.500624 -1.31857 -0.348247 
0.0870899 -1.35983 -0.3815 0.493707 -1.34762 0.459733 0.251041 -1.27899 0.529061 
0.147129 -1.35435 0.379444 0.241065 -1.41179 0.297738 0.0966658 -1.3582 -0.012558 
0.276976 -1.32006 -0.156599 0.0800951 -1.35882 -0.288972 0.472264 -1.35385 0.30987 
0.348634 -1.40768 -0.0292593 0.129622 -1.34347 0.230553 0.213248 -1.3346 0.0981202 
0.219632 -1.29566 0.291452 0.320797 -1.29137 -0.295067 0.270947 -1.34801 0.0404229 
0.422495 -1.31831 0.166124 0.0825909 -1.29265 0.215258 0.515591 -1.30053 0.419107 
0.893243 -1.30019 0.533049 0.546903 -1.35561 0.420415 0.240824 -1.2949 0.228684 
0.318179 -1.35522 0.156976 0.31885 -1.35428 0.0926162 0.367258 -1.28844 -0.23239 
0.520263 -1.33284 -0.241391 0.492641 -1.2928 0.204036 0.548572 -1.22584 0.527673 
0.644591 -1.28733 0.408239 0.776915 -1.34081 0.462026 0.423768 -1.34427 0.228942 
0.676897 -1.41468 0.136496 0.594335 -1.2217 -0.399396 0.601179 -1.35846 0.188491 
0.854149 -1.22695 -0.316349 0.3912 -1.29514 -0.298445 0.828454 -1.2997 0.28379 
0.759142 -1.28959 0.419831 0.332818 -1.28447 -0.172125 0.571341 -1.27625 0.288747 
0.670145 -1.27254 -0.166637 0.490116 -1.24962 0.145383 0.879493 -1.2919 0.214246 
0.970396 -1.38758 0.0886504 0.535632 -1.28033 0.0564656 0.99494 -1.25514 0.443902 
0.648761 -1.3302 0.341079 0.941759 -1.29605 -0.0631611 0.675007 -1.20756 -0.27143 
0.725697 -1.22899 -0.145078 0.791333 -1.30415 -0.0806776 0.82085 -1.34982 -0.0453599 
0.739917 -1.31832 0.178087 0.702861 -1.35504 0.138451 0.859692 -1.29911 -0.026282 
1.00884 -1.24926 0.0867024 1.06209 -1.27485 0.0386411 0.912317 -1.251 -0.140232 
0.786914 -1.28875 0.114985 1.10926 -1.28463 0.394213 1.00432 -1.24676 0.188908 
0.818564 -1.2433 0.229002 0.698525 -1.25826 0.110983 0.931631 -1.36139 0.216543 
0.857265 -1.2851 0.118959 1.19587 -1.36094 0.11718 0.947475 -1.35382 0.143636 
1.12378 -1.25896 -0.0979622 1.02649 -1.26079 0.275306 0.76314 -1.22436 0.0951917 
0.993127 -1.35388 0.196548 0.297587 -1.4153 -0.358838 0.199583 -1.37218 -0.327215 
0.0322034 -1.4135 -0.0345407 0.441386 -1.28069 0.531353 0.0339864 -1.41171 0.191287 
0.0880112 -1.3243 -0.106991 0.34023 -1.30685 -0.394473 0.0369041 -1.36214 0.0211608 
0.0326481 -1.34527 0.48835 0.346495 -1.40639 0.198483 0.151789 -1.41314 0.444422 
0.323974 -1.3469 0.532516 0.0881315 -1.39519 0.227285 0.326602 -1.35887 -0.265514 
0.218214 -1.35071 -0.129119 0.248464 -1.41429 -0.201873 0.124938 -1.33761 0.15298 
0.311963 -1.29151 0.50203 0.0915132 -1.33731 -0.219775 1.00553 -1.41418 0.472955 
0.23417 -1.40735 0.20262 0.218252 -1.34158 -0.0603298 0.403452 -1.35847 -0.282323 
0.150983 -1.3235 -0.00108985 0.58237 -1.41374 0.215314 0.46906 -1.4131 0.144588 
0.45247 -1.28905 0.341031 0.273969 -1.35692 0.322738 0.194392 -1.36247 0.157608 
0.311593 -1.34571 0.270396 0.802424 -1.4127 -0.22651 0.19028 -1.38805 0.264681 
0.356534 -1.34234 -0.0620749 0.16168 -1.30576 -0.12083 0.394471 -1.41526 -0.141465 
0.293208 -1.35424 -0.0873745 0.465521 -1.33981 0.396069 0.479231 -1.25486 0.394886 
0.297919 -1.35989 -0.0221612 0.358571 -1.34946 0.0162509 0.800785 -1.29747 -0.212163 
0.379002 -1.36167 0.155166 0.33626 -1.3453 -0.179575 0.352678 -1.29994 0.131967 
0.377646 -1.29363 0.256151 0.34745 -1.33268 0.211617 0.526077 -1.23573 0.436672 
0.447887 -1.29511 0.108894 0.734785 -1.25912 -0.210307 1.05807 -1.36699 -0.147688 
0.310353 -1.30422 0.003955 0.443931 -1.30489 -0.0198034 0.836504 -1.41477 -0.140689 
0.613583 -1.36227 -0.0114219 0.650047 -1.36313 0.275152 0.501625 -1.3507 0.244411 
0.51843 -1.26058 0.345289 1.14795 -1.36799 0.380289 0.628706 -1.36881 -0.0745474 
1.12047 -1.28372 -0.219176 0.725206 -1.29668 -0.116325 0.85371 -1.32461 -0.107734 
0.686987 -1.36358 -0.0514834 0.746454 -1.34156 -0.0064778 0.897897 -1.35459 -0.0555811 
1.04997 -1.23609 0.467509 0.635921 -1.31484 0.092317 0.841167 -1.41501 0.25416 
0.652667 -1.25791 -0.0944699 0.895585 -1.35378 0.0897645 1.09825 -1.31888 -0.000936835 
1.01075 -1.31107 0.00852044 0.813321 -1.37067 0.0466082 0.753565 -1.33952 0.101881 
0.695728 -1.29823 -0.0351395 1.05055 -1.34982 0.155005 0.85485 -1.41217 0.0912703 
1.1804 -1.2314 0.410083 0.994529 -1.29 -0.106159 1.09766 -1.40835 0.173019 
0.963323 -1.37555 -0.036741 0.971569 -1.31633 0.0849792 0.859426 -1.20939 0.455624 
0.0341697 -1.37739 -0.227624 0.0314942 -1.41421 -0.173315 0.0354918 -1.41021 0.467892 
0.0724437 -1.41424 0.307663 0.0839395 -1.37146 0.528368 0.0998903 -1.41553 0.479578 
0.0769751 -1.41064 -0.339136 0.166917 -1.39479 -0.39495 0.384427 -1.36054 -0.403686 
0.0336249 -1.41208 -0.285872 0.0513896 -1.41294 0.0665803 0.264865 -1.4091 0.47098 
0.0356039 -1.41055 0.363863 0.240122 -1.4087 0.370388 0.142768 -1.41182 0.527019 
0.301576 -1.35419 -0.332145 0.142907 -1.41429 -0.33147 0.145817 -1.41471 -0.269134 
0.640493 -1.41014 -0.320234 0.4243 -1.41293 -0.237064 0.115897 -1.41367 0.0605291 
0.0974774 -1.34394 0.422121 0.392117 -1.33181 0.529311 0.109643 -1.35189 0.315514 
0.50098 -1.4062 0.400753 0.175053 -1.37137 0.0534573 0.310246 -1.40789 -0.168348 
0.292569 -1.41419 0.089721 0.209852 -1.40935 -0.0930775 0.355288 -1.34886 0.469544 
0.316754 -1.32229 0.415516 0.291526 -1.40986 0.249617 0.713826 -1.35035 0.518618 
0.207238 -1.35181 0.33198 0.411109 -1.35007 0.349652 0.453631 -1.34856 -0.224239 
0.383538 -1.35578 -0.218959 0.0655063 -1.35876 0.109069 0.455365 -1.40706 -0.173038 
0.243284 -1.3527 0.267285 0.263677 -1.35817 0.128552 0.420622 -1.35378 0.450552 
0.336716 -1.32092 -0.122281 0.457335 -1.41043 0.0498621 0.628577 -1.28081 -0.373055 
0.523583 -1.29204 -0.290469 0.569926 -1.41475 0.0649266 0.51894 -1.28589 0.489525 
0.648228 -1.41098 0.225372 0.550471 -1.35133 -0.296621 0.456628 -1.41397 0.209158 
0.680622 -1.36145 0.394759 1.07277 -1.29128 -0.269919 0.463051 -1.28393 -0.0797627 
0.428062 -1.34145 -0.0861081 0.50193 -1.32635 0.0149142 0.43834 -1.34184 0.037777 
0.529405 -1.33108 0.35556 0.571503 -1.28971 0.535691 0.942802 -1.25472 0.531367 
[...]
POINT_DATA 1274
FIELD FieldData 10
VELOCITY 3 1274 double
-7.5574606891e-05 -5.5054332577e-05 -8.4023491781e-06 -0.00030761498767 3.4566800091e-05 5.2256029335e-05 -0.0001624508354 -4.39841951e-05 0.0001541485534 
-4.2691446417e-06 -7.4360092045e-05 0.00010138493119 -0.00011691756074 -9.3825680228e-06 1.9661818913e-05 -0.00010300991471 9.8947760945e-05 0.00013291966948 
-0.00023991908952 -5.2874828897e-05 3.6175269323e-05 -0.00029970125647 -4.084081189e-06 -0.00015531421387 -2.4628966297e-05 3.1950831503e-05 -9.7529049611e-05 
4.8412515461e-05 -7.2025093195e-05 -0.00012278909503 -0.0001443252726 3.5619813669e-05 -6.1703836637e-06 -0.00025379438318 -0.00021848897957 -6.7171280829e-05 
-2.2549482337e-05 -0.00014410124258 -6.5228513687e-07 -0.00015676140038 -1.0225215736e-05 -3.7665315919e-05 -5.9992646844e-05 -2.2615144069e-05 4.6776097103e-05 
-2.6518349232e-05 4.2202866644e-05 -3.6692246517e-05 -4.7232904724e-05 8.9783738323e-05 -4.7529920502e-05 -0.00028186516166 -0.00011845861924 -5.9129853957e-05 
-3.5321097109e-05 -0.00016924989601 -0.00026854446188 -0.0001086923888 6.9012284175e-05 0.0001023501136 0.00025766976207 -0.00011098590195 -0.00010688187253 
5.453012935e-05 -1.374938776e-05 -0.00016067908635 -4.503562363e-05 -5.2759611579e-05 5.1142225019e-05 -0.0001435723046 -5.4476250954e-05 0.00015803233758 
-0.00015742433117 -0.00014653319162 0.0002886132872 -0.0001589296174 -1.9015099701e-05 2.3405707382e-05 -3.2764860752e-05 -0.00015543165332 2.7964223047e-05 
-0.00031235210662 -9.2814530759e-05 -6.5891052685e-05 -8.2203760496e-05 -5.5579326112e-05 9.8870588625e-05 -0.00037985617226 -6.7110367126e-05 -8.2642110151e-05 
-0.00018353030431 -5.9249451077e-05 0.00023357955033 2.3083033147e-05 5.2669692179e-05 -0.00016649495255 -0.00025545938526 -0.00019213301709 -3.7691983424e-05 
7.5603867942e-05 -0.00021288505222 -3.4897163473e-05 0.00017915264613 -4.18221585e-05 6.626811665e-05 4.3647923624e-05 -0.00018008316766 1.5492871981e-05 
-0.00014728581932 -0.00016978135742 -0.00017625283474 -8.2404539302e-05 -0.00022010225552 -2.4984272371e-05 -4.1298443977e-05 -0.00015103413488 -8.6962567831e-05 
0.00035783976553 -0.00024139900345 0.00020593028715 -4.8459575007e-05 -0.00026201522271 -2.457364128e-05 -1.5816253926e-05 1.2343229995e-05 -2.3349855283e-05 
-0.00014369052236 -8.8465817087e-06 -0.00012741026514 0.00010979750816 -2.9174488e-05 -0.00015673992384 -0.00018192818997 -2.0249900773e-05 0.0002924048467 
0.00034134269899 -0.00024345579292 0.00016374844056 -3.2009961254e-05 -0.00017447361905 -1.5523781354e-06 -0.00030247776686 -7.8177652933e-05 9.5174324781e-05 
-0.00017925369504 -2.6327400615e-05 -3.3615329941e-05 -2.6883158224e-05 -9.2820285421e-05 -6.2292578789e-06 2.4224361254e-06 -8.9133107805e-05 -3.3011406382e-05 
1.4498870892e-05 -0.00032405951175 9.1779495497e-05 -0.00016434057749 -2.0550678791e-05 -9.971113794e-05 -0.00016418995217 0.00013067499666 4.4125651373e-05 
-9.8809790867e-05 -7.6662831911e-05 0.00017251535039 -0.00017622227855 -5.7654569928e-05 -2.3551454345e-05 5.7083793495e-05 -4.6027567151e-06 6.9246618464e-05 
3.8821758593e-05 -3.855195627e-06 2.0116729506e-05 -9.0223530558e-05 8.7094353117e-05 4.2203216699e-05 -1.370018411e-05 -8.2887586918e-05 0.00026666232162 
-0.00010201130943 3.4691152415e-05 0.00012174617839 -0.00018995906113 -0.00012601815415 -4.347900409e-05 -0.00033867789845 -4.8368205634e-05 -5.2352203224e-06 
-4.0060458081e-05 -5.2146794124e-05 7.8404713063e-05 -0.00011490196568 -0.00018506206932 0.00017011199737 -8.7629830942e-05 -0.00010793848936 -2.5789699938e-06 
-0.00021121775647 2.4022415863e-05 2.9120848453e-05 -5.686805099e-05 5.666101012e-05 0.00013131977272 -0.00012711029217 3.7470278948e-05 2.1535449063e-05 
-0.00011483763531 -2.3979564109e-05 1.0469399852e-05 -0.00013637433104 3.2048245454e-05 0.00013117690737 -0.00017563884469 -1.9949688263e-05 -4.8938392981e-05 
-1.1468264906e-05 -7.9618756686e-06 6.6858778311e-06 -0.0001760912947 7.990943195e-05 -2.6869057301e-05 2.9508786759e-05 -0.0001097409581 -0.00014221900296 
-0.0001033199172 8.6025801405e-06 7.7666025093e-05 -0.00018086848543 -0.00011779205904 0.00010628165053 -5.0874469361e-06 1.583876856e-05 4.1260133198e-05 
4.4144963211e-05 4.7307291779e-05 0.00015819115082 0.00020753580844 8.0263947185e-05 4.8994702034e-05 -0.0002311584339 -2.8401254712e-06 8.5570547633e-05 
-0.00028933147927 -0.00011502904459 -8.6473399408e-05 -0.00024397571675 -0.00013081366121 0.00013278506178 -3.6772933452e-05 -8.2939903278e-05 4.5797565574e-05 
-3.0551260683e-05 -0.00019035928861 -9.0950048368e-05 -5.9163093662e-05 -0.00010451411633 -0.00012836870798 0.00023899011232 -0.0001877287399 -8.4325493276e-05 
0.00014498706946 -0.00016274428543 -4.3839016093e-05 0.00010227018135 -0.00014152678288 0.00012766302849 7.883512218e-05 -0.00021729214499 -4.2982003598e-05 
-0.00020788029167 7.4263476766e-05 -2.7736892117e-05 -9.1923335404e-05 -2.5893450839e-05 -4.4696376719e-05 -0.00011005056434 -1.0366793973e-05 -3.7644121472e-05 
2.3175876992e-05 -0.00029412772225 -0.00019599643992 2.9020765511e-05 4.7310237101e-05 0.00016087557842 -6.5639161589e-05 -0.00027385748954 -0.00025047944817 
-3.1386910681e-06 8.0369158233e-05 -2.90506447e-05 0.00017184932435 -6.6919649069e-05 0.00018039948291 3.2983255707e-05 -7.6981076395e-06 -0.00015400073589 
-7.4253724541e-05 4.9435715539e-06 -3.2978723645e-05 -0.00025374235374 -8.1731058516e-05 0.00013599972613 -2.1550869428e-05 -3.3507746766e-05 -0.00016934763764 
-0.00024676596255 0.00012002566574 0.00010820974078 -5.4048629903e-05 -0.00022313623132 -0.00010895487035 -3.7890881074e-05 -7.1680798073e-05 -0.00023969934756 
-1.5433941808e-05 -0.00031296233154 -0.00010965061559 -3.2179117952e-05 1.2457855306e-05 -0.00020832776081 8.5490601308e-06 -3.9717243453e-05 -0.00016077836089 
-2.4607982671e-05 -0.00022594105276 6.3162615311e-05 -3.2889768511e-05 -1.8974181133e-05 -0.00017612144007 0.00038801349009 -0.00035156783727 9.505646899e-06 
0.00011376139446 -6.3506730544e-05 1.172658978e-05 -0.00011161816181 -0.0003382282764 7.1751211585e-05 -0.00017772809922 -9.5553496913e-05 -1.9953602795e-05 
4.034237648e-07 -1.600667529e-05 -4.7280935429e-06 8.6144580502e-05 -0.000134748907 -0.00018423871364 -7.9656622957e-05 -0.00010501127489 -4.0025036371e-05 
-1.4342155039e-05 2.4090224688e-05 -3.266963927e-05 -0.00015926553138 7.5465243056e-05 4.4800095145e-05 -1.0017774608e-05 -0.00024436898401 -0.00017996146116 
4.928597798e-05 -0.00032700573111 -0.00016365445518 0.00012082968716 5.2408652865e-06 -0.0001631879919 -0.00020118759596 -3.0382783496e-05 -3.7357006081e-05 
-0.00019667256881 -0.00015597575256 9.9127869597e-05 -0.00014744618857 -4.5088923913e-06 4.7684990159e-05 -0.00014339729155 -2.8905764537e-05 -0.00010214360084 
4.5514978186e-06 -2.9841624021e-05 -5.4483351842e-05 1.991966348e-05 -9.253817577e-05 -0.00013456208487 -0.00021838595103 -0.00014456163032 0.0002785392351 
-0.0003853436547 -0.00014276937064 1.1776562562e-05 0.00011241846758 -0.00025219038405 -0.00024847851067 -0.00010677867869 8.0570050265e-05 -5.9399668528e-05 
-0.0001334702866 -0.00010174444135 -2.0184697009e-05 -4.4440524379e-06 -1.8602781392e-05 -4.1589679705e-05 -0.00034850992738 -0.00015948200789 -0.00038431315155 
-5.5726260887e-05 -0.00020797197496 2.729377471e-05 -8.3792493642e-05 -4.1071239291e-05 -0.00017139547675 2.8828574801e-05 2.0814079944e-05 -7.8559061515e-05 
3.3432154969e-05 1.2361538885e-05 -8.1334242787e-06 -1.8396120071e-05 6.9555129935e-05 0.00018283240587 -3.8020211025e-05 -6.0340864778e-05 -2.9791587599e-05 
-5.2598892107e-06 2.8383980129e-05 -0.00015020744914 4.9583480031e-05 1.57351501e-05 5.8235700774e-06 -0.00021838089972 6.5705164098e-05 -2.4512849757e-05 
1.6372003604e-07 8.9614426078e-06 -2.7976680391e-05 2.2303387817e-05 3.5775293903e-05 -7.3670159502e-05 -4.7870113314e-05 -3.5903151004e-05 -8.1845764118e-06 
8.5838091415e-05 -1.8774038469e-05 3.4228958361e-05 -2.4496500727e-05 3.5803246021e-06 3.3762956543e-05 -5.5188326688e-05 -4.8384532295e-05 -8.6584516305e-05 
-5.6121756072e-05 -6.2242966335e-05 3.9480974099e-05 1.9664871483e-05 -1.3254796249e-06 -4.1569329346e-05 -0.00027169579115 -2.7663679523e-05 -5.6866837841e-05 
-3.9628762867e-05 0.00015866165835 0.0001372205604 -9.8365948192e-05 4.1169186653e-06 1.9295024223e-05 -9.5142272494e-05 -8.1853546067e-05 -7.2161797994e-05 
-0.00011296515245 -2.1229495272e-05 3.5133273209e-05 -0.00017747942266 -3.9013966705e-05 5.4428924139e-05 5.4564167313e-05 -2.8213218513e-05 -2.2063235515e-08 
-5.6879435822e-05 6.6133329945e-06 -7.7512714753e-05 -0.00013130216754 -6.4636581807e-05 -3.1722009318e-05 0.0001075758761 -0.00026588162444 -0.00033299323866 
-0.00012935294012 -2.2511102061e-05 0.00013228476392 0.00013485998884 -0.00012288048512 -6.3323033049e-05 -0.00012963937848 5.8358986809e-06 2.7722646547e-05 
-9.1987299401e-05 4.5612427493e-05 -1.8324469777e-05 -8.6473292819e-05 6.7476247473e-05 0.00011610705489 -0.00015014444084 -5.2539947278e-05 3.8587729433e-05 
-6.3591215562e-06 -7.9349913356e-05 1.1836699824e-05 -0.00012913274421 -1.4099602498e-06 7.6269557254e-05 -3.2679406632e-05 -5.7812457182e-05 -5.0628300806e-06 
-0.00012122842169 6.8379744759e-05 -7.3306133077e-05 -0.00020481061328 9.954069514e-05 0.00027052522351 -0.0002840631536 7.6409802357e-05 -9.9987999956e-05 
-0.0001213569844 1.1950424269e-06 2.9845516266e-05 -0.004322286177 0.00048131673575 -3.3683745425e-06 -0.00011939682302 1.8030350463e-05 -4.4820751523e-06 
0.00025892417591 -0.00016358594644 0.0001799327518 -0.00019656044493 -6.3387345013e-05 -2.562525413e-06 -9.5149056281e-05 -8.1427496038e-05 1.4473057479e-05 
-9.358086435e-05 5.0700185436e-05 -9.4105187416e-05 -0.00010035895576 1.3948982815e-05 4.988415783e-05 -0.00014341868045 -6.4419053996e-05 -9.4635309806e-05 
-3.7045223975e-05 -0.00024853139173 1.7978788039e-05 3.9532399674e-06 -0.00012647286937 1.6044029359e-05 2.9478689533e-05 4.9891888051e-05 6.0598767239e-05 
-5.8945402573e-05 0.00015009511779 3.5928856325e-05 2.1028460532e-05 -5.3251007853e-05 1.5747882518e-05 0.00029793043381 -0.00033306087851 -0.00016171656337 
5.0270221939e-05 -3.7425232604e-05 9.1223430107e-06 4.2118087811e-05 -2.5796927697e-05 0.00015457318155 -0.0024296427471 -0.0012205293424 -0.0078378166804 
-8.0964790112e-05 -8.1456254874e-05 -0.00017285257887 -0.0001056355936 -3.7891489534e-05 -7.713983395e-05 9.3506684152e-05 -6.1718871359e-05 -0.00021704749756 
-2.4773880039e-06 -7.843605674e-05 -7.0398431364e-05 -0.00027655782175 -4.7856092044e-05 0.00012264863625 -6.6933168898e-05 9.1703674496e-06 0.00011654272087 
0.00015159640559 -2.6627408982e-05 -0.00017310959592 6.391334348e-05 -0.00010625402647 -5.4352296248e-05 -0.00012209690185 -5.8017687369e-05 0.00028142275558 
-3.7856561868e-05 -0.00012289608504 -0.00013308427946 -0.0003298226986 -0.00064302687531 -0.00061435186054 -6.2673729916e-05 -2.4753783452e-05 0.00013953565056 
4.2779328421e-05 -0.00010034351289 -2.2682030824e-05 -0.00012025883088 -4.8428830587e-07 1.1715237143e-05 -0.00023872984326 -0.00024533987177 -0.00036553937062 
2.4904536179e-05 2.7933101309e-05 -0.00019062931498 -3.0377221327e-05 -0.00015431102968 0.00015506178606 0.00012064550231 0.00013095134244 0.00012678480762 
0.00010756615366 -0.00017943739624 -0.00022446745935 -1.1424442309e-06 -0.00014881403025 9.9823619928e-05 -9.4155285766e-05 -0.00015714435625 -0.00016051900763 
-0.00017244704673 -0.00056085162623 -0.0002333294973 -0.00023328630643 0.00021821353734 7.2721778645e-06 -2.5773696016e-06 2.5645182587e-05 9.3855692089e-07 
9.1934024686e-06 -2.0021557072e-05 -7.7614164014e-05 -7.8248548406e-05 -9.4706845885e-06 -2.258485673e-05 2.6283311503e-05 -0.00023892503562 0.0001422287561 
3.3292433467e-05 -0.00013530482696 -5.1511242186e-05 -1.8577898258e-05 -3.2432235005e-05 -1.2649111008e-06 2.0674509165e-05 2.2431044819e-05 8.0351047718e-05 
-5.2456807122e-06 5.4290657042e-05 -0.00018356863456 -0.00014088716373 -4.7694144031e-07 -6.6848482352e-06 -0.00027768078982 0.00015787937159 -0.0001947883789 
-0.00010116120889 -2.6183073158e-05 2.8215957148e-05 -3.3758509061e-05 5.9872027444e-05 -1.4083254674e-06 -3.3054067845e-05 -1.6725052071e-05 -3.0431630401e-05 
-3.1635250651e-05 -6.0035705135e-05 8.9989459599e-05 -0.00061799765894 7.3975389218e-12 0.00080473983806 -0.00015780870878 2.9643043317e-05 -3.0596745423e-06 
-6.6535253055e-05 -5.3916227149e-05 -6.1791436717e-05 5.579487306e-06 9.7157677045e-05 -0.00015648832639 -5.3162880666e-05 1.4669809061e-05 -2.0820655968e-05 
-0.00013209037088 1.5975681385e-05 -7.5828122442e-05 7.9407534175e-05 -0.000185295575 0.00011525993128 5.9855876087e-05 2.0330539896e-05 7.5978632718e-05 
-7.1526963502e-05 -8.8954494956e-05 -4.3724823446e-05 -2.1400913469e-06 3.1981030996e-05 0.00013244955699 1.9718039356e-06 3.5919895865e-05 0.00010229586576 
-0.00029386110103 -2.1728830362e-05 3.8211007744e-05 -0.00013637587117 -3.8176302371e-05 1.812566079e-05 -0.00016594821345 7.6057233951e-06 -3.9273181261e-05 
-0.0001494085862 -4.4279005452e-05 3.8401341905e-05 2.653306472e-05 -3.3626458435e-05 -0.00019977757006 3.6067086078e-06 -0.00013427409988 2.7728384412e-05 
2.4078419618e-05 -2.1110038074e-05 -2.7963997256e-05 1.3266178377e-05 2.1810648457e-05 0.00010719393093 0.00011848932409 4.5042718492e-05 0.00030650100398 
1.9884699902e-05 -4.9337613693e-05 3.586077401e-05 -0.00016172827117 -5.4121804948e-05 -0.00010591854226 -0.00015503392019 -8.2367735552e-05 4.6529750038e-05 
-0.0001011130991 -4.0235255457e-05 1.7103368344e-05 -0.00016024429472 -4.2647389711e-05 2.0137675044e-05 0.00013390614718 -0.00020981227447 -0.00012267537341 
-0.00010987111261 1.8079832214e-05 2.4115772053e-05 6.174238149e-06 -0.00010013302097 0.00023291879326 -0.00015107540371 -9.5402761517e-06 -4.6368318807e-05 
-6.6758235401e-05 -5.5862367085e-05 4.7679818797e-05 -0.00012702773399 4.7293601744e-06 7.4529727996e-05 -0.0001063271047 -0.00014778049843 4.1275327819e-05 
-1.7827976178e-05 1.1783459521e-05 -5.1424961446e-05 5.7475988842e-05 -0.00028752493738 -6.2349056231e-05 -9.0679837677e-06 -3.776937997e-05 4.9895124299e-05 
-0.00017702130034 -2.1184592516e-05 7.0435911373e-05 -0.00021090600717 6.4877492634e-06 -8.5482393838e-07 -5.8647158665e-05 -1.6191977328e-05 6.5728288018e-05 
-1.1961169888e-05 -4.7680776102e-05 -0.00018553088248 -1.9673189182e-05 -0.00011560231124 0.00013495899113 -0.00017412033902 -7.2180289616e-05 1.839298128e-06 
-0.00015278557689 -0.00026385741733 -1.1525937981e-05 -0.00017823110875 9.7216683555e-05 -0.00013483470821 1.2074778113e-05 -0.00011658715323 -0.00016299657303 
6.6520461442e-05 -9.5180123994e-05 -5.0370173905e-05 3.1191079824e-05 -0.00017279690552 -0.00038018332835 -0.00017025171546 -7.8025895377e-05 0.00015211997697 
6.8547465585e-05 3.1785755409e-05 -1.3989845896e-05 -0.00034224019776 -4.4670937997e-05 5.8966287613e-05 -2.0700568787e-05 -5.0533778922e-06 2.8910963469e-05 
5.0829796748e-05 2.8631278251e-05 3.135489505e-05 7.6757676918e-05 1.1340915013e-05 -4.7816766772e-05 -0.00031424572245 1.842655622e-05 -1.9632539113e-05 
0.00012482931369 -0.00019232910906 -0.00019880320426 -0.00010037553521 -6.9303521492e-06 4.8134500016e-05 -5.6499181684e-05 -0.00021500786721 -0.00023647231009 
2.1204529643e-05 -0.00010708251043 -2.7476749779e-05 0.00013429480818 -7.1784501059e-05 7.0671894273e-06 -0.00015830903659 -6.177800705e-05 0.00022245328328 
-0.00017891483516 -0.00011541234854 -0.00020003960479 7.5434880192e-05 0.00010682903522 -9.5590921484e-05 -1.6436922626e-05 1.440815064e-05 0.00019740004238 
0.00028630587988 -0.00023688266167 7.9339766282e-05 0.00010051074479 -0.0001567541995 0.00023031577375 -0.0003703344154 -3.8797046425e-05 -0.00023360039049 
-0.00014791103537 -5.3034486695e-05 0.00010104363616 -0.00011275499695 0.00011585345949 -1.915023755e-05 -0.00026526961748 -0.0002130371546 -0.00038753976524 
-1.3308910461e-05 0.00021142599761 -2.7666615808e-05 6.3144007588e-05 1.4699026613e-05 -0.00021183991424 -1.1426506226e-05 -3.7320453363e-06 -3.3635723974e-06 
-9.4705671477e-05 7.6127796067e-08 0.00020529934391 -0.00019444403217 9.5335046963e-05 -4.0652803548e-05 0.00012989134153 2.3807781168e-05 0.00039150410308 
6.0956365086e-05 1.3010002567e-05 -0.00014302470525 -3.6512477879e-06 -1.6525721249e-05 6.5954148298e-05 1.0865546683e-05 3.4037483697e-05 4.1166917646e-06 
3.3640696954e-05 -3.0798824675e-05 -2.5568571257e-05 -1.378598114e-05 -2.9471753743e-05 1.1116440634e-05 -0.00020513927155 -7.2366116535e-06 1.7241433878e-05 
2.5703191144e-05 7.704721993e-06 0.00015112783076 8.9085488085e-05 3.4221436841e-05 1.7395560637e-05 -0.0001967749309 -9.7989283973e-06 0.00026458999824 
-0.00027749887141 9.9875348029e-06 4.3905483989e-05 5.7114120134e-05 -2.1524493426e-06 -1.0060298731e-06 -6.8378397627e-05 6.5682789124e-05 4.1647253218e-07 
-0.00014747635315 -1.0528995074e-05 -3.1350507927e-05 5.0938611262e-05 -1.3551913626e-05 -2.1680174465e-05 -0.00011898598653 2.4014471388e-12 -0.00011503410504 
-3.3489669762e-06 5.0174961578e-05 -4.030860698e-05 -9.1312512081e-05 -4.251742072e-06 -1.7763600338e-05 -4.0997258057e-05 4.0712301119e-05 0.00011098135371 
6.7602258307e-05 -6.9099514877e-06 -0.00024678285509 -3.3616842916e-05 -4.3840605516e-05 -0.0001239971565 -1.5383210004e-05 2.8715171718e-06 1.8062465314e-06 
4.8790221349e-05 8.4359411841e-06 1.5549291093e-05 -7.2700347567e-05 -0.00020578137415 1.9265534386e-05 -0.0001623739989 -5.5131558593e-05 6.9545371422e-05 
-6.4263217301e-05 1.845265737e-05 1.2789398904e-05 -7.1666308779e-05 -1.3754627811e-05 5.9425961814e-05 5.3779541102e-05 3.5648974688e-05 0.00010429523331 
-7.4104420563e-05 -3.3146775619e-05 4.3434523207e-05 -0.00023863432022 -2.4002416787e-05 -4.6157295574e-06 1.1189040626e-05 -8.0019924597e-06 4.6209528242e-05 
-0.00016482665691 5.3945433596e-05 -0.00010725874437 -0.00011507073291 4.5468476964e-05 -6.5411451387e-05 -4.6030491457e-05 -2.9246511698e-05 -6.0488604229e-05 
-0.00014061490327 1.2511366418e-07 -1.4710991776e-05 -5.3407625114e-05 -2.0592080047e-05 1.4642472073e-05 -0.00016603718614 -7.2948849745e-05 0.00010969973469 
-5.6256647926e-05 8.679127476e-06 4.0643501289e-05 -0.00014672221353 -0.000171951185 0.00017524790679 -0.0049789722694 -0.0025898694303 -0.006028615133 
-0.00017956044754 -1.6122499069e-05 1.9110092157e-05 6.8831252263e-05 -1.7119472876e-05 -4.7331257599e-05 -0.00037120723863 2.5002074586e-06 0.00015914900199 
-0.00029115987963 5.8897672877e-05 8.6816102943e-05 -5.9057861912e-05 0.00012425862185 -0.00014139142594 -3.6171015014e-05 -5.9149192179e-05 -5.5438833995e-05 
-0.00017931803073 1.9083484898e-05 0.00010250881281 -7.6387739499e-05 -0.00016455872048 4.3806845264e-05 -0.00026979123524 9.1471066932e-05 2.9753903172e-06 
-0.00021161179262 4.4339741013e-05 0.00015553828955 -1.9279057749e-05 1.1881330462e-05 -3.0398586412e-05 4.0365485412e-06 9.5192212348e-06 -1.4852522065e-05 
-0.00017682236825 -0.00028005501952 1.4795488278e-05 -0.00013785854584 -6.3558133293e-05 4.8960989408e-05 -2.3432543323e-05 -0.00017304207707 -1.0998574795e-05 
4.3910941012e-05 1.3409969097e-08 3.6487029785e-06 -0.00024164885789 -1.6929852643e-05 1.6120416646e-05 1.5517647588e-05 -8.3031417969e-06 -6.6987437208e-05 
-5.8265639427e-06 -0.00014168925423 -0.00026592297711 -0.00023564673588 -0.00022587461333 -0.00026104218899 -0.00015774105259 -0.0001006421986 1.1556619256e-05 
5.1327947712e-06 5.4371497287e-05 -7.6048261452e-05 -0.00011126941305 1.8831013033e-12 4.9845776731e-05 8.9666839037e-05 -6.8088092547e-05 -0.00017729939981 
-1.9469160846e-05 0.00019775577985 6.8285029601e-05 -0.00036681495334 -0.00013369075367 1.5875442983e-05 -2.087853826e-05 -3.0436951836e-06 -0.00010797342928 
-0.00010612901128 -4.6156454442e-05 0.00013291433001 -3.6149430864e-05 -0.0001149158248 -2.5236051597e-05 -0.00010253248708 -2.2729152759e-05 -2.8902710855e-05 
0.00024386796102 4.0587127224e-05 -8.2244573838e-05 1.8412410416e-05 2.2185232212e-05 -7.5272552643e-05 -0.00010119889074 -6.2413912763e-06 -5.3666984372e-05 