# vtk DataFile Version 4.1
vtk output
ASCII
DATASET UNSTRUCTURED_GRID
POINTS 1274 float
0.515747 0.54715 0.0379561 0.472143 0.644819 0.10542 0.491087 0.590203 0.268458 
0.497556 0.580799 0.0988472 0.426398 0.749338 0.0323182 0.426649 0.763129 0.120828 
0.478549 0.6302 0.213676 0.460749 0.663381 0.268644 0.39634 0.83925 0.0580685 
0.400357 0.808018 0.165209 0.448991 0.691892 0.214069 0.434985 0.733523 0.265755 
0.365018 0.897494 0.0319705 0.346027 0.962682 0.053417 0.383313 0.873586 0.146197 
0.397333 0.838259 0.231086 0.347995 0.951119 0.259925 0.316408 1.03327 0.0387193 
0.393121 0.908692 0.086362 0.450047 0.893551 0.11032 0.334252 0.991294 0.129774 
0.41087 0.909268 0.218399 0.312157 1.03351 0.265121 0.3541 0.924415 0.187857 
0.283954 1.09616 0.0480289 0.330167 0.982493 0.201274 0.28834 1.10402 0.260298 
0.259557 1.15806 0.0336645 0.358958 1.11071 0.101116 0.303861 1.06411 0.108795 
0.290842 1.24433 0.038219 0.305019 1.04015 0.200162 0.285738 1.09522 0.172074 
0.334706 1.2504 0.0920051 0.388197 1.15086 0.0379588 0.277585 1.14352 0.109861 
0.423274 1.14498 0.105183 0.26279 1.14545 0.207851 0.341577 1.10173 0.211038 
0.220078 1.25276 0.0333125 0.322958 1.17916 0.053319 0.32153 1.15165 0.173336 
0.246655 1.19438 0.163847 0.2878 1.17874 0.26484 0.241133 1.21712 0.0926613 
0.37505 1.22507 0.035663 0.238054 1.22657 0.235405 0.217677 1.25191 0.148422 
0.541203 0.466306 0.0302151 0.61458 0.288267 0.0935189 0.598664 0.35116 0.123852 
0.599614 0.341041 0.200217 0.578749 0.382487 0.266486 0.614103 0.304664 0.262554 
0.544139 0.46167 0.208871 0.511563 0.550921 0.218103 0.605902 0.322809 0.0359018 
0.568313 0.413554 0.158091 0.486826 0.617247 0.0378892 0.608586 0.465502 0.0454596 
0.54895 0.467793 0.0984157 0.552167 0.441831 0.268469 0.56751 0.563905 0.262767 
0.530425 0.505168 0.159514 0.554242 0.662464 0.0308666 0.447639 0.706032 0.0799483 
0.52031 0.691265 0.108386 0.474499 0.746919 0.178591 0.553621 0.540922 0.102641 
0.524014 0.650186 0.266699 0.448471 0.691797 0.144685 0.417427 0.771561 0.213755 
0.502247 0.672919 0.168887 0.558318 0.569847 0.168209 0.496103 0.77331 0.0920574 
0.538104 0.754576 0.146097 0.461301 0.80836 0.0363737 0.510514 0.717136 0.0401679 
0.48568 0.811348 0.150333 0.438314 0.830423 0.113015 0.36723 0.887656 0.269731 
0.501789 0.763643 0.260787 0.541878 0.61049 0.218539 0.565142 0.741324 0.219585 
0.470704 0.80939 0.213589 0.510059 0.697503 0.225405 0.459509 0.883071 0.0395842 
0.519631 0.84671 0.0353354 0.536261 0.784368 0.0326259 0.455183 0.86904 0.177515 
0.496913 0.843306 0.0947719 0.465571 0.863805 0.260662 0.441151 0.79838 0.26896 
0.41933 0.947304 0.0373657 0.374871 1.083 0.0325898 0.467587 0.998524 0.0331352 
0.403255 0.990952 0.0960902 0.418581 0.942719 0.152272 0.471141 0.958771 0.0916758 
0.486814 0.934361 0.264407 0.421501 0.966768 0.261477 0.536338 0.977072 0.268899 
0.463907 0.944359 0.204118 0.385936 1.01832 0.0323965 0.36737 1.04809 0.0849966 
0.46339 1.0264 0.0900466 0.364739 1.0583 0.1579 0.397561 0.999835 0.197225 
0.443161 1.04543 0.264237 0.378704 1.02314 0.26748 0.483631 0.996368 0.237295 
0.460525 1.1298 0.0385465 0.47235 1.07701 0.12296 0.429502 1.03621 0.140454 
0.360575 1.08383 0.269155 0.528355 1.17266 0.175885 0.490139 1.09527 0.267863 
0.408944 1.08295 0.213773 0.431132 1.12866 0.264219 0.447088 1.11382 0.166937 
0.358477 1.15395 0.260101 0.513152 1.18218 0.0381686 0.499946 1.14095 0.120592 
0.440021 1.19945 0.0341942 0.371392 1.19676 0.100882 0.383256 1.1286 0.165498 
0.340528 1.23081 0.260939 0.453721 1.16097 0.208439 0.403563 1.2002 0.223334 
0.470479 1.18612 0.266119 0.489081 1.24999 0.0363231 0.314164 1.20773 0.13714 
0.461356 1.24362 0.224891 0.301822 1.20755 0.203777 0.475674 1.20473 0.17017 
0.375021 1.22085 0.164589 0.641792 0.226157 0.179545 0.565469 0.409543 0.0317439 
0.663645 0.184185 0.0583697 0.664259 0.280771 0.212137 0.642343 0.235872 0.263506 
0.671555 0.168111 0.206952 0.645428 0.216932 0.115889 0.631837 0.395919 0.0363743 
0.593781 0.414318 0.0899354 0.529626 0.503474 0.265843 0.609289 0.478896 0.262981 
0.619695 0.285505 0.158484 0.642553 0.369172 0.249183 0.618403 0.452341 0.134743 
0.59066 0.537968 0.0375213 0.66379 0.413648 0.100146 0.537764 0.62863 0.131809 
0.608144 0.520397 0.146623 0.579375 0.516148 0.211724 0.596277 0.425474 0.219322 
0.613575 0.617738 0.266294 0.605068 0.710244 0.0390392 0.557847 0.603423 0.0644335 
0.573009 0.726123 0.0999367 0.568008 0.690706 0.159325 0.601787 0.703631 0.268224 
0.594839 0.626783 0.177106 0.648909 0.629918 0.212748 0.572326 0.666257 0.224951 
0.599835 0.750816 0.15955 0.58974 0.659709 0.0953591 0.640529 0.779799 0.0391363 
0.564068 0.787768 0.0902516 0.541682 0.807504 0.190145 0.547811 0.825846 0.261816 
0.617101 0.768589 0.265247 0.516891 0.866822 0.211583 0.62731 0.701167 0.202376 
0.601485 0.813603 0.219902 0.586177 0.829582 0.0347578 0.562388 0.851152 0.0933348 
0.566069 0.901135 0.0396986 0.504485 0.936069 0.0315437 0.553888 0.903331 0.260437 
0.599838 0.96113 0.265546 0.529447 0.856185 0.146275 0.508412 0.914293 0.170156 
0.537262 0.994615 0.0520986 0.52428 0.907852 0.103449 0.474536 1.05279 0.192176 
0.471555 0.990026 0.155881 0.539763 0.982679 0.136736 0.518977 1.03934 0.269178 
0.571533 0.938826 0.192205 0.438622 1.05993 0.0347797 0.539186 1.11814 0.0335707 
0.574366 1.05613 0.0351738 0.506134 1.05605 0.0328716 0.55293 1.10102 0.0953209 
0.523154 1.04359 0.1034 0.542574 1.00215 0.209074 0.504455 1.11939 0.205464 
0.540928 1.22853 0.089486 0.576378 1.20652 0.0322882 0.565222 1.17047 0.122674 
0.523897 1.08378 0.154247 0.606161 1.08069 0.26867 0.542148 1.23134 0.159606 
0.534976 1.20659 0.237264 0.568178 1.12267 0.179183 0.556749 1.06669 0.214685 
0.555555 1.13088 0.259467 0.641966 1.2006 0.0422705 0.624246 1.20179 0.109714 
0.46725 1.20909 0.101073 0.649166 1.22862 0.221376 0.5974 1.19102 0.186127 
0.773368 1.15948 0.205527 0.683079 0.120953 0.0396077 0.696239 0.112405 0.115798 
0.725742 0.0220627 0.193337 0.684984 0.127064 0.265458 0.701513 0.0855968 0.184863 
0.637968 0.252408 0.0387477 0.698408 0.307271 0.0396795 0.704428 0.216578 0.15175 
0.708009 0.25718 0.267352 0.643094 0.397312 0.172463 0.699115 0.192583 0.267436 
0.682587 0.318059 0.26667 0.667542 0.328611 0.138091 0.678828 0.449242 0.0395198 
0.659744 0.486267 0.0959818 0.65299 0.346552 0.0777316 0.687934 0.458567 0.156705 
0.654452 0.451347 0.217261 0.686741 0.270293 0.104941 0.732864 0.405324 0.199397 
0.694334 0.347107 0.202201 0.614934 0.636797 0.0351674 0.660924 0.518752 0.0349371 
0.638275 0.552579 0.0901311 0.597854 0.595898 0.120265 0.65067 0.597498 0.157346 
0.665402 0.675939 0.262127 0.641308 0.538238 0.269081 0.689902 0.573233 0.207682 
0.619608 0.570702 0.210468 0.677028 0.537485 0.149184 0.680106 0.507143 0.20564 
0.632916 0.706835 0.123259 0.660607 0.644691 0.0941508 0.701152 0.56344 0.0965584 
0.711537 0.61772 0.140959 0.71865 0.63878 0.206807 0.664407 0.814566 0.2687 
0.667336 0.663297 0.161816 0.626031 0.795503 0.117159 0.648627 0.868763 0.0392684 
0.691427 0.753049 0.0799876 0.709116 0.693396 0.084891 0.683033 0.755901 0.149606 
0.639305 0.767393 0.203448 0.698926 0.707575 0.204953 0.615342 0.858129 0.265677 
0.582644 0.865638 0.18359 0.615635 0.960654 0.0372502 0.668986 0.976776 0.0766609 
0.633299 0.861594 0.107104 0.645225 0.919891 0.0882538 0.587942 0.899287 0.125001 
0.610925 0.959743 0.138395 0.636327 0.976179 0.20918 0.680922 0.840285 0.147693 
0.634799 0.913997 0.233885 0.645259 0.854859 0.204591 0.63302 0.908937 0.169126 
0.632374 1.10139 0.0300654 0.643407 1.03099 0.038461 0.695636 1.08371 0.0358781 
0.575955 0.948248 0.090221 0.597083 1.01241 0.0953502 0.668487 1.03515 0.114886 
0.579207 1.02405 0.259865 0.614439 1.01738 0.162143 0.673121 1.02308 0.183128 
0.616906 1.08179 0.0901872 0.623306 1.13524 0.137785 0.697985 1.15663 0.0370854 
0.59657 1.14692 0.0646476 0.582878 1.06953 0.145734 0.624643 1.04897 0.216866 
0.742419 1.12347 0.083635 0.637852 1.12568 0.223418 0.6617 1.08432 0.167503 
0.604422 1.19014 0.26361 0.750909 1.2033 0.0336682 0.792932 1.17242 0.102039 
0.691508 1.16216 0.106119 0.67513 1.19069 0.168711 0.677932 1.18035 0.262125 
0.721699 0.0689945 0.0342102 0.755231 0.108488 0.0767487 0.721291 0.0415132 0.121095 
0.787766 0.0443072 0.128551 0.728153 0.0300673 0.262519 0.735936 0.0943095 0.242776 
0.709944 0.233545 0.0350649 0.749658 0.168701 0.0392056 0.770283 0.258686 0.0304657 
0.739714 0.170806 0.111322 0.729595 0.144813 0.1722 0.758698 0.153639 0.2634 
0.776393 0.218407 0.154787 0.772889 0.231703 0.262996 0.736638 0.197349 0.212706 
0.704911 0.383001 0.0363971 0.767764 0.320505 0.0314109 0.72428 0.32604 0.103294 
0.750697 0.239657 0.092429 0.737653 0.408158 0.0918857 0.767877 0.363588 0.129009 
0.707467 0.38005 0.141623 0.751963 0.310462 0.263468 0.737055 0.26958 0.198696 
0.698175 0.415731 0.260496 0.72858 0.502446 0.0910404 0.751133 0.455496 0.0378144 
0.796642 0.472696 0.0872046 0.758846 0.460481 0.140087 0.794414 0.409261 0.172651 
0.678974 0.4861 0.266634 0.806747 0.506656 0.264163 0.772567 0.386978 0.260568 
0.74468 0.47415 0.245577 0.721839 0.541075 0.263656 0.673753 0.591578 0.0391291 
0.694905 0.658572 0.0315345 0.740747 0.521054 0.176509 0.764449 0.570237 0.123379 
0.6785 0.604316 0.267399 0.755802 0.576745 0.215558 0.743096 0.612472 0.267124 
0.674623 0.718127 0.0313759 0.748108 0.739883 0.111262 0.760128 0.683002 0.0384571 
0.729502 0.748914 0.0312169 0.748147 0.646824 0.0964722 0.742039 0.684576 0.261114 
0.690883 0.807658 0.208618 0.728532 0.683433 0.146627 0.753058 0.737115 0.178024 
0.682134 0.741817 0.26934 0.702968 0.926378 0.0399838 0.71869 0.846316 0.0346116 
0.683464 0.816373 0.0839534 0.695995 0.879644 0.0948199 0.742521 0.802731 0.159205 
0.740191 0.829794 0.260084 0.727343 0.759703 0.233126 0.681191 0.878086 0.265521 
0.712688 0.869597 0.208308 0.687461 0.943266 0.26891 0.718969 1.0109 0.0398205 
0.727137 1.06009 0.0888211 0.729981 0.943325 0.107362 0.689983 0.936946 0.205999 
0.672906 0.968685 0.139109 0.693013 0.91047 0.149412 0.732517 1.00072 0.154658 
[...]
POINT_DATA 1274
FIELD FieldData 10
VELOCITY 3 1274 double
0.091773659885 -0.21496003687 0.0027576442061 0.07373341721 -0.17947371113 -0.033693272257 0.080230000589 -0.19501548796 -0.00018916613853 
0.094503129697 -0.22427743589 0.014647626214 0.087427025959 -0.21120471982 3.8658406935e-05 0.075235757614 -0.17841161253 0.0073980195292 
0.11049483748 -0.26849649973 0.049608674659 0.071642129178 -0.17459254968 -0.0011819617822 0.067543006646 -0.16338382676 -0.0084183686862 
0.070422383437 -0.17089356389 -0.0021647218816 0.090648511804 -0.22065335368 -0.028689614963 0.081216783831 -0.19493519663 -0.00028223144213 
0.057721365056 -0.14089470087 -0.00026224294389 0.059034538633 -0.14570220854 0.014282432059 0.070669251302 -0.17047546132 -0.0025335301028 
0.075367776535 -0.18447618193 -0.016810156842 0.067152333586 -0.16406142065 -0.011476238191 0.06017422958 -0.14898622163 -0.0035579773254 
0.045761651343 -0.14100283158 0.0054083122132 0.035777302406 -0.17065713322 0.0091473058879 0.048038884715 -0.1167414326 -0.013227538111 
0.074326169967 -0.17945531721 0.009018748059 0.057453087268 -0.13775861973 2.9873480724e-05 0.072256026164 -0.17529292085 0.014815179672 
0.06089057331 -0.14804022089 -0.006870097972 0.071606167582 -0.17402062549 0.0086376585421 0.05610111668 -0.13698687362 5.7713688743e-05 
0.042652974806 -0.10333295091 0.00012480096763 0.043207460542 -0.13782059466 -0.071511949305 0.061924241057 -0.15018385461 -0.0096537811178 
0.037606314015 -0.21464562277 -2.616436256e-05 0.071742329294 -0.1741839226 -0.0052418997799 0.070756614016 -0.17123179486 0.00077411215704 
0.033456010872 -0.14268131733 -0.0046579810671 0.080318953066 -0.19178598936 -0.052314832341 0.062728125225 -0.15172430981 -0.015451329352 
0.043324837988 -0.14340933066 -0.028854912699 0.065843601721 -0.15984337769 -0.022962184958 0.054310368465 -0.14597568229 -0.00099373585318 
0.048798309998 -0.11863797869 0.0049474450638 0.083272135956 -0.19835431373 -0.027988387676 0.061479731701 -0.1530650968 -0.014514991447 
0.062617405799 -0.151952888 -0.015781691711 0.010967026499 -0.13694144673 -0.00027348569754 0.063447169232 -0.15432059979 -0.026372450388 
0.074727083924 -0.17820088708 -2.9844151016e-05 0.04961947343 -0.12045576792 -0.040872967727 0.06354782185 -0.15433320554 -0.026467716459 
0.019978032542 -0.18070416741 0.00090165104039 0.12505703968 -0.3037099672 -0.00026416970608 0.11053191099 -0.26912714167 0.028198695549 
0.081222172617 -0.19964395697 0.038062631568 0.08825362352 -0.21558137636 0.00071191557699 0.093173344913 -0.23051700943 0.011750313069 
0.11171697324 -0.27356090582 -0.034327806992 0.083121491637 -0.20393657772 0.0070307565111 0.090119360767 -0.21886131518 0.0010640404355 
0.072885412559 -0.17537285711 -0.05104325645 0.10456222441 -0.19367281486 0.020294666106 0.04174564223 -0.30230097368 -0.014993555062 
0.10063589014 -0.24328193908 -0.0055381790349 0.0865123299 -0.21054830444 -4.9668474287e-05 0.093843155903 -0.21565897969 -0.0005955612667 
0.10056667297 -0.24438702223 -0.0038490550744 0.1281666517 -0.18329839694 0.0004269953371 0.08147010387 -0.19808139951 0.014798218964 
0.08573192472 -0.19432720262 -0.0065013667109 0.080845820097 -0.19943714361 -0.0011198300745 0.084273754802 -0.241455802 -0.0010785278397 
0.054432047697 -0.2509082662 0.0035122972346 0.087335387113 -0.21082186467 0.011791487277 0.077485883091 -0.18591792275 -0.013471611775 
0.06260031514 -0.2814152312 0.012082106448 0.10192986178 -0.26601653142 -0.0020258561 0.071278460922 -0.21123688483 -0.017935492418 
0.073803905189 -0.19517769051 -0.014839655418 0.057456230225 -0.19227534186 0.00059326540671 0.073230900362 -0.22512632948 -0.0050784182963 
0.030087566563 -0.2032562299 -0.026660821272 0.032909046105 -0.17032324186 0.00062044196597 0.080355345677 -0.19490184783 0.00067457200782 
0.07699314246 -0.1860709769 -0.00010942430481 0.13030129406 -0.23413634603 -0.016965368399 0.060770330609 -0.20588467815 -0.014933089404 
0.057773001414 -0.16598284244 -0.021170908675 0.089465454974 -0.24796519328 -0.0057541063648 -0.016455480147 -0.19241424386 -0.0096650860897 
-0.012346091596 -0.19154789088 -0.019765483123 -0.013336212766 -0.19285668912 0.00053358748978 0.034169063919 -0.2101705468 -0.0048015664968 
0.03966324733 -0.18160587573 0.001550946408 0.064358777955 -0.17670088941 -0.00040099710053 0.097170062959 -0.19276819927 -0.006143248039 
0.055695411062 -0.1466362534 -0.00041923260178 0.050475595935 -0.19062788585 0.0004755153542 0.086594999019 -0.17541871166 0.0016832177079 
0.066973619456 -0.17856314051 0.025462775165 0.069622878798 -0.17191014926 0.036292601356 0.064793167914 -0.18251514882 0.0012142323633 
0.069234090996 -0.17664097045 0.03043598912 0.069199358357 -0.17790327734 0.00016008528591 0.03871040917 -0.13406434672 -0.00097694932656 
0.096290432943 -0.18481265028 0.017936515733 0.071979175798 -0.16324174557 -0.0010184662268 0.060118791662 -0.18602412896 0.0066118182164 
0.033065734068 -0.18616099416 0.0030210274381 0.064652493138 -0.12394640943 -0.014487473391 0.06675933899 -0.15434333356 0.013263589962 
0.044819256441 -0.16190438227 -0.00020263993879 0.050782066093 -0.19004499651 -0.0019752028446 0.020926623959 -0.18642953318 0.0065528515107 
0.083388645313 -0.18046457223 0.004014656826 0.062779559464 -0.18993306312 0.0023871907366 0.056830569834 -0.17232268562 0.023299488259 
-0.0029609228021 -0.20626136278 -0.00026301422954 0.038276162271 -0.16727531528 -0.0042413602065 -0.0016005021902 -0.19562049024 0.0053057095726 
0.049701167646 -0.1479536524 0.0059388887185 0.03241166626 -0.13569631627 0.00082356577634 0.058760977978 -0.17011536339 -0.00552146147 
-0.011286398859 -0.21049633066 -0.0033772378193 0.049810967735 -0.14968951895 0.01380557295 0.035239340527 -0.17956601475 0.0037721044264 
0.072053339565 -0.18444724157 -3.0058245764e-06 0.053393278964 -0.13212387386 -0.021666266191 0.072036221317 -0.12785318569 0.0065506344984 
0.0799365763 -0.20458470484 0.00034765390243 0.010829642095 -0.21165524211 0.02245393239 0.0079379378643 -0.21207536209 0.015857981965 
0.039833425674 -0.14178016366 -0.00018339316759 0.039057276525 -0.15357179237 0.0021888883119 0.044595370716 -0.14663200985 -0.0034681252113 
0.0028874328566 -0.17331288985 -0.03575326295 0.055123564649 -0.16220523636 -0.0016580616305 0.0017382111945 -0.22583645882 0.00098731199693 
0.052364048177 -0.19167224953 0.0010765985986 0.10839143699 -0.25769270763 -0.030899622602 0.06648954469 -0.16079615048 0.0077050788846 
0.13874498569 -0.33517552303 -0.0060329807332 0.16505544525 -0.26977807202 -0.042694835138 0.073382040027 -0.18146967576 -0.001662497766 
0.099726780505 -0.24199210934 -0.026225899182 0.12796001392 -0.31146957111 -0.022460295677 0.038257096007 -0.30345980436 -0.00037541355991 
0.060751025291 -0.28048501802 0.015203981077 0.086561190971 -0.21057740724 0.00033083983427 0.10312638498 -0.23612890128 0.0035001081143 
0.10193052361 -0.24755340848 0.0032616999776 0.09473694139 -0.26739656321 0.069061070967 0.14300485725 -0.2604324511 -0.044698192884 
0.085773014089 -0.29101166696 -2.3439366445e-05 0.1156483648 -0.29551359547 -0.040832291993 0.121677897 -0.24314242525 0.017488649725 
0.090357159114 -0.27099095164 -0.022070236838 0.09916003017 -0.26819079553 -0.017757667026 0.11016347675 -0.2786545183 -0.046816990609 
0.059572876858 -0.18552057941 -0.0016070222845 0.051515665961 -0.23867640734 -0.00032769301831 0.076923464517 -0.19600448016 -0.013137951085 
0.10037410053 -0.20682560396 0.015664076187 0.060860280451 -0.20427367917 0.010825709753 0.036788808963 -0.18846689339 0.0040698316551 
0.08022741238 -0.26521583679 0.085778062008 0.17801126247 -0.31162080743 0.043475347506 0.03408403656 -0.19063485458 0.0086607986384 
0.074164141772 -0.21898109387 -0.011971212283 0.10115872622 -0.22933950157 0.0023506340312 0.033946255493 -0.22883107447 0.0062111539138 
0.07447928843 -0.21817920398 -0.039117181972 0.035389267281 -0.21568210447 0.0099866351315 0.070552651821 -0.18146200681 -0.0058038762537 
0.027891629044 -0.17051378876 0.00081326972257 0.053097320475 -0.20447185144 0.0058596758054 0.062633643898 -0.22054568757 0.020675007911 
0.04983749368 -0.19757657476 -0.030793911964 0.023854925018 -0.23423027167 0.00023173533027 0.038712625155 -0.22140406117 0.010568193309 
0.03372293517 -0.20896419098 0.00074430608583 0.030581945577 -0.23047275076 -4.7776709292e-05 0.065483180745 -0.18106908762 0.00021859285096 
0.036733687903 -0.15877259458 -0.00024808052925 0.036894836515 -0.20938936329 0.014724163411 0.065910447889 -0.23201149996 -0.037430844602 
0.049358658854 -0.24450118345 0.010192367748 0.030655470234 -0.21972910896 0.00052229526877 0.05049011128 -0.16275180525 0.02514009305 
0.057604984434 -0.15315920726 0.003255301129 0.054366549053 -0.16610823477 -0.0076138585324 0.023132310709 -0.18329666086 -0.00045650745429 
0.03707416503 -0.17145142126 -0.0014243770551 0.08091154573 -0.17794879639 8.5622365636e-05 0.032663012494 -0.15631390765 0.00036088666365 
0.029593787492 -0.23525457499 2.6246032892e-05 0.077475163888 -0.23316636438 0.0010882594178 0.0346998513 -0.17560929698 -0.0046042030992 
0.045672375517 -0.18815923284 -0.045379013714 0.019592382794 -0.17939726081 0.0031663743974 0.052551240586 -0.16131947 0.018982250629 
0.053287473191 -0.1356892264 0.0082669858681 0.044294421288 -0.12831749814 -2.2854146926e-05 0.024960740226 -0.1566051264 -0.0072881833565 
0.042515447125 -0.14730338776 0.027098944383 0.047026572608 -0.17420615081 -9.9924721826e-05 0.057120239484 -0.16773688597 0.0095176740645 
0.032855022844 -0.14376827035 -0.016174922691 0.037523483036 -0.16790519565 0.0055150142176 -0.009317944572 -0.17061880986 -0.013006463214 
0.071355424205 -0.14968844965 -0.00031999939849 0.041358981046 -0.16561389677 -0.0038599459497 0.044316076284 -0.19179018592 -0.002554086754 
0.055920139432 -0.15072413636 -0.0011745447811 0.04452447483 -0.20001141333 -0.0025149461861 0.048077902361 -0.20409745234 -0.0032920941059 
0.019774854013 -0.19923366084 0.00048647154238 0.1584531704 -0.38481485976 -0.0021581384538 0.11673875908 -0.28346917555 0.024052119047 
0.15798961176 -0.38450377456 -0.00082503636497 0.10477759354 -0.2617793116 -0.010806486686 0.15775782558 -0.38311988061 0.019017112461 
0.12562652987 -0.30509301487 0.00052189666776 0.055266705773 -0.30463948955 -0.00011041663973 0.10807595059 -0.39610142176 0.01204308619 
0.10365869429 -0.28745318429 0.0012859049861 0.11813065528 -0.27364137113 -0.042820216351 0.20700997873 -0.29664642807 -0.00013011890201 
0.10258807667 -0.28738912284 -0.00052414797745 0.15558886877 -0.31153476954 -0.0066491209848 0.040151938466 -0.29940179402 -0.062102034383 
0.14764314008 -0.24861262037 -0.030221734141 0.095631105505 -0.2685420546 0.010597556809 0.096726633851 -0.25366126186 -0.010693213686 
0.11194525994 -0.33541519143 0.017509039329 0.18575245732 -0.35316890407 -0.0046742445138 0.098368524846 -0.21985279452 0.031976338228 
0.11838388041 -0.23529847144 0.025287327211 0.1063424431 -0.23267949187 0.00041858255476 0.060399968293 -0.19215456347 -0.0011697617912 
0.099510949607 -0.20564587056 0.021076711852 0.052797837537 -0.15441127369 0.015624439287 0.052808957502 -0.23965437085 0.031397447608 
0.03153602056 -0.19940003519 -0.00037570816403 0.052957141872 -0.20871721336 -7.8433225572e-06 0.082772959651 -0.25748115893 0.0053156152596 
0.12026683761 -0.28325470922 0.051932709524 0.091308304785 -0.2710164994 -0.035536136925 0.048441102274 -0.25054732919 -0.022422507225 
0.092287878469 -0.23480716286 0.019126090604 0.098059054288 -0.24018548522 0.031307135848 0.11434805032 -0.28080496118 -0.029803188227 
0.050951056103 -0.25862198425 -0.0088926122547 0.07284110944 -0.25248687262 -0.012635504146 0.064637156662 -0.20838025295 -0.00039335123443 
0.059763537401 -0.24568595039 0.039602372668 0.0610215289 -0.21075682452 -0.0020008190073 0.0054483431086 -0.20623759467 0.011487698128 
0.055256581829 -0.24499519916 0.025342259029 0.071190736673 -0.22284593397 -0.029918709782 0.078579212234 -0.22724965927 0.031652523696 
0.052617027303 -0.21487867818 0.010754498961 0.070916024332 -0.25282395331 -0.013888117409 0.043535925976 -0.22815984007 0.00028432330777 
0.035313070248 -0.17451928427 0.005870965894 0.011713148986 -0.20063268386 -6.6504097239e-05 0.021574296965 -0.21524061174 -0.007278523694 
0.032341553439 -0.20539561134 0.027699016606 0.010445691308 -0.20717316738 0.010742693402 0.011275092405 -0.241099012 0.049325827884 
0.038519073498 -0.17513935097 -0.0025640249835 0.020924554594 -0.20906565754 -0.024065585882 0.058010957013 -0.24234055329 -0.0068050959154 
-0.054985233597 -0.23705302712 0.0025820076328 0.066694037717 -0.22368502289 -0.03897689124 0.033216201475 -0.17724341652 -0.0047034308721 
0.040987150607 -0.16277703385 0.0001222970271 0.038613564681 -0.21137926649 -0.0026095514437 0.030154674911 -0.20319990198 0.00047766769508 
0.032050942192 -0.21751508086 0.011231569981 0.04317061342 -0.20678361119 0.0030109081936 0.021011355009 -0.20897911968 -0.015285259371 
0.026872323722 -0.16285115406 -0.01409781504 0.0051626631526 -0.17785296175 0.010825446275 0.016697477003 -0.19968450548 -0.012959437876 
0.025993879038 -0.20347164341 -0.016850744256 0.024665368511 -0.1994804324 -0.021300474248 0.01397906701 -0.20067090525 0.00017065523283 
0.040260132104 -0.16615726478 0.0045675356831 0.03408090607 -0.16417640275 -0.0026614729667 0.016557287995 -0.16603529305 0.0017369744536 
0.010014432242 -0.21475763376 -0.0068476072318 0.010285615216 -0.1838280087 -0.03565074335 0.01824228851 -0.1989016886 -0.0116068059 
0.033115119463 -0.11772171729 -0.00037697284978 0.016643185087 -0.2036427025 0.0020477257455 0.024317059237 -0.21869875167 -0.0077614181826 
0.024508678767 -0.20025227596 0.0017224733549 0.049819117518 -0.18648649424 0.0025417344647 0.02408323521 -0.19074657493 0.022986279741 
0.0065575964975 -0.51853115434 0.00080036879137 0.077966298234 -0.46289608421 -0.023606911227 0.11612029874 -0.28200408214 -0.0010519971237 
0.12263226293 -0.48992820335 0.018790957544 0.16299201891 -0.39567848179 0.00012494592552 0.0029464076351 -0.3928368301 -0.053696711418 
0.095637831171 -0.29013304542 -3.5842432167e-05 0.019482496034 -0.39712421694 0.00037424628299 0.094857888491 -0.28501387485 0.00055498838167 
0.19306000253 -0.34003852165 0.022729879431 0.12529262342 -0.37685991378 -0.023727215293 0.095868989479 -0.45084366923 -0.00052152622728 
0.11184489871 -0.4450416313 -0.0066091848544 0.087228745219 -0.35526164936 0.002891010003 0.18172709579 -0.42597213072 -0.018029723722 
0.0098902515751 -0.29732674023 0.00044547574871 0.051787418735 -0.28578265658 -2.1732338026e-05 0.074564911217 -0.2810207558 -0.037757307581 
0.12262315712 -0.42803857728 -0.0048618769336 0.10604204462 -0.34251364171 -0.034440175393 0.081028392113 -0.30554585008 -0.013044138142 
0.09285659018 -0.27400887623 -0.0012714340958 0.10034096864 -0.29174783403 -0.0012421328346 0.15912516751 -0.41423662889 0.039760675078 
0.047781663303 -0.19136558906 -0.0010312544619 0.16114839654 -0.2699196261 0.052343624214 0.039246276734 -0.2700104983 7.7292198379e-05 
0.050899771904 -0.32764078086 0.012110993234 0.1147362652 -0.28954195498 0.065212601934 0.10835078643 -0.31513974829 0.039338471976 
0.098113401033 -0.18757778028 2.5950928678e-05 0.06136436664 -0.15689078802 0.00060099712364 0.0048631813149 -0.41815933636 -0.00070670730927 
0.099086204569 -0.22953653235 0.0027754946635 0.14989245174 -0.21001199246 -0.0010962733065 0.1260299815 -0.20610044224 0.0007590046765 
0.074959815556 -0.19213943289 -0.00032685513176 0.077071530377 -0.3810192709 -0.024741350924 0.088377583201 -0.31038303637 0.03833824001 
0.037450660834 -0.29315111505 0.00081840923897 0.081815534137 -0.27464885364 -0.02100248618 0.029151421242 -0.23002053549 -0.031280812719 
0.046792970119 -0.20321383789 -4.0088491618e-05 0.065147666145 -0.22445435882 -0.0089802369496 0.09337872949 -0.23829617666 0.0012739524234 
0.048642960022 -0.14029515004 0.0025995865431 0.037058801906 -0.25785561437 -0.022284331857 0.05687747978 -0.25655647088 -0.0010148535784 
0.065999939916 -0.2250424507 0.0018220289892 0.040709395941 -0.234565244 -0.037792716661 0.062797407595 -0.23159064234 -0.011067891641 
0.006713082144 -0.18979980032 -0.010285298458 0.024451003793 -0.21993235131 0.00036503736788 0.023306650089 -0.14934550676 -0.00011781658706 
0.054499331433 -0.21918031525 -0.020589039737 0.051881002981 -0.22175672812 0.0034789580322 0.071795011377 -0.21028971831 0.0063135104382 
0.056097381755 -0.19138772594 -0.00033514493122 0.0044575527153 -0.20933025366 -0.025212928931 -0.014083024417 -0.18649799943 0.00022230337087 
0.026474296997 -0.20934667454 0.0021812153823 -0.030886005936 -0.18464145544 0.00051137950026 0.034662947728 -0.22857208183 0.00068147025502 
0.030302746669 -0.21972547303 -0.0058042501615 0.044635416752 -0.21212445325 -0.0067062020115 0.0052931624587 -0.23335485004 0.0053757671623 
0.041707242858 -0.19462014139 -0.0062215338477 0.032609821689 -0.2005578916 -0.0087357955599 0.050818419012 -0.20639177844 -0.013415280611 
0.035206987034 -0.15832320351 0.00030218194152 -0.014349572272 -0.18428208557 -0.00070960000516 0.018847979562 -0.21735431107 -0.0057303878939 
0.02904505896 -0.22169074517 -0.0075200851396 0.0049883074015 -0.22300079032 -0.00087245726096 0.033449804728 -0.20488529973 0.002917479916 
0.0079928301664 -0.22156247243 -0.0070116526326 0.013154661944 -0.2060886785 -0.011135744913 0.014359277801 -0.19858609674 -0.010472832649 
0.016966336233 -0.18402908974 0.0038718820998 0.016614294444 -0.20577438426 -0.0015917590006 0.024249046651 -0.194820798 -0.0006046678271 
0.033420230187 -0.18710108367 0.00096539254576 0.02615845395 -0.15486692963 -0.0040192540366 0.01635379532 -0.20512196835 0.0055860339322 
0.021938059935 -0.2114165078 0.0093359803646 0.022425054379 -0.21244805363 0.00048628979832 0.023209469877 -0.20511582595 -0.0032604125947 
0.04811518494 -0.20699443973 0.0025342575166 0.019311698595 -0.21711681798 -0.00046305773922 0.019831352393 -0.20569802797 0.0098945554913 
-0.039242964191 -0.55037982783 0.0035656496302 -0.011603479268 -0.57086434247 -0.049454253851 0.059215020562 -0.51404535028 9.732399022e-05 
-0.026573010008 -0.60344065197 0.012698550686 0.1340306846 -0.56323372549 -6.217525443e-06 0.21186875887 -0.43555642612 0.095959653006 
0.016870132393 -0.50975029156 -0.0061270856559 -0.0042281822768 -0.45347125873 -0.002572325641 0.20948871959 -0.39106819284 0.01115533884 
0.089127686415 -0.29390441982 -0.00039534345684 0.16080559476 -0.47381129218 -0.010130742674 -0.012168025889 -0.5290983625 -0.020305681416 
0.11116528931 -0.47574315077 -0.012750563898 0.18143563014 -0.41694352003 -0.027502216855 0.17821206069 -0.51824602308 -0.057806380851 
0.1009112304 -0.39744960685 0.01633861072 0.020730619569 -0.32546766693 -0.0004402976304 0.12695550325 -0.40216461795 0.012234979409 
0.070194098225 -0.37055231138 0.015320494238 0.10182588161 -0.41095275077 0.0033423089041 0.087958178018 -0.36144630875 -0.033717836604 
0.1027179011 -0.37440201024 -0.038403693241 0.12793104611 -0.51697645699 -0.01134896332 0.116091006 -0.33590707692 0.0023379913306 
0.016470090045 -0.27794706287 -0.034831121984 0.071981764538 -0.33912034455 -0.0013426057933 0.027167329327 -0.32358039181 -0.00062223698083 
0.022157728676 -0.32605924472 -0.00010549267313 -0.015221501338 -0.23124126915 -0.031808182816 -0.020755663793 -0.38772462831 0.026578733338 
-0.0016204063727 -0.36280359718 -0.00024388159894 0.090036110888 -0.3766527462 0.0031632513362 0.058240858318 -0.29793175402 0.015917257618 
0.06859588677 -0.32001391254 0.00043127278977 -0.0051167805809 -0.31697097023 0.0013410750626 0.062934831153 -0.33141691186 0.014931463636 
0.141802022 -0.28261577881 0.04450471442 0.071613315725 -0.15575464179 -0.0034157821632 0.0082720720634 -0.34981838197 0.0060939033636 
0.097129683039 -0.35658658697 0.028535832384 0.057102280933 -0.32288397268 0.069926130013 0.056495646975 -0.2257815985 -0.010873334677 