# vtk DataFile Version 4.1
vtk output
ASCII
DATASET UNSTRUCTURED_GRID
POINTS 1274 float
0.273718 -1.29443 -0.0532497 0.273987 -1.30223 0.0958597 0.27955 -1.29493 0.317307 
0.15785 -1.31611 -0.211103 0.298473 -1.29135 0.178101 0.411625 -1.23461 -0.0671031 
0.38155 -1.29108 0.322073 0.470237 -1.2355 0.493103 0.51214 -1.24369 -0.00798554 
0.637003 -1.2533 -0.00556852 0.538939 -1.34674 0.187577 0.641372 -1.22253 0.434238 
0.852405 -1.27252 -0.151233 0.843548 -1.25445 -0.0829311 0.657785 -1.29641 0.158031 
0.755451 -1.27586 0.265886 0.696153 -1.27031 0.218763 0.793976 -1.20787 -0.0448613 
0.637081 -1.20749 -0.0558967 0.672404 -1.34643 0.00777866 0.715104 -1.19067 -0.0821334 
0.690719 -1.30815 0.278283 0.390954 -1.2345 0.28175 0.615284 -1.2721 0.224728 
0.912892 -1.23658 -0.0766106 0.29845 -1.24953 0.129092 0.657548 -1.2078 0.363599 
0.814247 -1.19492 -0.113135 0.921264 -1.31393 -0.000331135 0.823044 -1.2293 0.0380919 
0.971781 -1.20855 -0.0151361 0.656918 -1.2281 0.0467483 0.557689 -1.21889 0.378471 
1.08234 -1.22275 -0.287842 1.03353 -1.24155 -0.141546 0.503946 -1.22127 0.280672 
0.789925 -1.27875 -0.0125543 0.634947 -1.27375 0.285658 0.405229 -1.25066 0.13783 
0.951711 -1.20259 0.0593186 0.851382 -1.22669 -0.208427 0.798095 -1.23315 0.160141 
0.838223 -1.21213 0.108899 0.748286 -1.221 0.216054 0.903454 -1.24344 -0.00543344 
0.985108 -1.23816 -0.236573 0.891785 -1.25233 0.291544 0.886854 -1.2179 0.230182 
0.452314 -1.29928 -0.306722 0.167846 -1.33254 0.280788 0.145267 -1.35884 -0.0654297 
0.0370367 -1.33462 0.173626 0.286447 -1.34238 0.471645 0.255881 -1.33817 0.38498 
0.239845 -1.31326 0.164733 0.379667 -1.35338 0.28514 0.153312 -1.34834 -0.272902 
0.359437 -1.41001 0.0556355 0.611872 -1.28941 -0.213237 0.217807 -1.35345 -0.222188 
0.399584 -1.34728 -0.151387 0.371659 -1.35516 0.404606 0.399338 -1.29301 0.394601 
0.278173 -1.34831 0.208896 0.213451 -1.33823 0.00541732 0.485184 -1.26612 -0.187256 
0.413336 -1.36079 -0.0237592 0.583459 -1.34511 0.299855 0.433289 -1.28267 -0.142615 
0.304205 -1.28408 0.24307 0.552696 -1.36027 -0.0195166 0.376729 -1.27369 0.194417 
0.331412 -1.29837 0.061771 0.33061 -1.26196 0.445506 0.508628 -1.22742 -0.0833554 
0.623513 -1.4128 0.0996179 0.544135 -1.25112 -0.240722 0.212455 -1.28187 -0.175356 
0.568407 -1.35601 0.0414739 0.541371 -1.30133 -0.0340833 0.328143 -1.26213 0.297727 
0.451473 -1.28839 0.450323 0.57982 -1.33501 0.469926 0.44656 -1.28092 0.264206 
0.511119 -1.29942 0.291057 0.451978 -1.3611 0.112144 0.615637 -1.30362 -0.0476856 
0.643771 -1.22729 -0.21401 0.972644 -1.28509 -0.284593 0.570348 -1.28627 0.172273 
0.475207 -1.28637 -0.250588 0.764615 -1.28926 0.343918 0.645569 -1.32732 0.220657 
0.577085 -1.23864 -0.0537357 0.999457 -1.26675 -0.0444746 0.741729 -1.25452 -0.0608686 
0.684795 -1.29046 0.0494559 0.876435 -1.34916 0.161971 0.603139 -1.25472 0.0798303 
0.780294 -1.23223 0.388038 0.7909 -1.24158 0.464706 0.545521 -1.26309 0.232888 
0.82608 -1.35949 0.20781 0.622039 -1.22501 -0.144778 0.687873 -1.23257 -0.0330175 
0.553124 -1.24061 0.123826 0.732435 -1.23674 0.0213213 0.808466 -1.30048 0.178029 
0.82892 -1.25036 0.340743 0.681247 -1.26709 0.329869 0.809193 -1.22662 0.532537 
0.912581 -1.24736 -0.369586 0.769641 -1.30974 0.0489447 0.437723 -1.256 0.192608 
0.723888 -1.22675 0.535002 1.1635 -1.22112 0.0118403 0.628958 -1.2663 0.530086 
0.734245 -1.22572 0.317651 0.704978 -1.2451 0.415572 0.57891 -1.24328 0.0154616 
0.958704 -1.2926 0.219488 1.10568 -1.23872 -0.167057 0.83902 -1.30529 0.0442164 
0.976983 -1.22601 -0.0923892 0.90835 -1.28982 0.0617672 0.616347 -1.23685 0.147515 
1.32158 -1.1972 0.526113 0.738702 -1.25643 0.161045 0.940288 -1.22523 0.193721 
0.952451 -1.20825 0.423002 1.21191 -1.26342 -0.182717 0.905144 -1.2321 0.0977896 
1.04512 -1.22583 -0.00800808 0.863856 -1.23343 0.171991 1.10064 -1.2582 -0.0321115 
0.963378 -1.26287 0.0318065 0.0866974 -1.41341 -0.246602 0.285899 -1.36072 -0.213052 
0.430063 -1.40919 -0.397639 0.0351685 -1.35958 0.315396 0.213251 -1.32114 0.482542 
0.0966729 -1.40799 0.156689 0.216635 -1.34413 -0.402017 0.500669 -1.31857 -0.34824 
0.0870917 -1.35983 -0.381491 0.493727 -1.34763 0.45976 0.251049 -1.27898 0.529061 
0.147106 -1.35435 0.379429 0.241079 -1.41179 0.297724 0.0966787 -1.35819 -0.0125338 
0.276988 -1.32003 -0.15662 0.0800984 -1.35882 -0.288961 0.472335 -1.35385 0.309877 
0.348645 -1.40768 -0.0292689 0.129629 -1.34348 0.230562 0.21327 -1.33459 0.0981386 
0.219651 -1.29566 0.291439 0.320849 -1.29137 -0.295079 0.270945 -1.34801 0.0404103 
0.422518 -1.31832 0.16615 0.0826244 -1.29263 0.215265 0.515572 -1.30047 0.419193 
0.893275 -1.30018 0.533049 0.546865 -1.35556 0.420428 0.240864 -1.2949 0.228677 
0.3182 -1.35521 0.156958 0.318855 -1.35428 0.0925978 0.367297 -1.28843 -0.232393 
0.520262 -1.33281 -0.241391 0.49267 -1.2928 0.204013 0.548569 -1.22583 0.527673 
0.644616 -1.28736 0.408249 0.776964 -1.34084 0.461942 0.423812 -1.34428 0.228968 
0.676925 -1.41468 0.136491 0.594811 -1.22174 -0.399396 0.601206 -1.35847 0.188499 
0.8541 -1.22691 -0.316394 0.391253 -1.29514 -0.298441 0.828472 -1.29966 0.283796 
0.759163 -1.28959 0.419832 0.332848 -1.28447 -0.172132 0.571365 -1.27624 0.288769 
0.670145 -1.27248 -0.166635 0.49011 -1.24959 0.145379 0.879482 -1.29191 0.214225 
0.970417 -1.38759 0.0886222 0.535633 -1.28032 0.0564585 0.99487 -1.25507 0.443939 
0.648768 -1.33021 0.341068 0.941747 -1.29604 -0.0631922 0.675309 -1.2074 -0.270551 
0.725713 -1.22897 -0.145049 0.79136 -1.30415 -0.0806748 0.82083 -1.34981 -0.0453121 
0.739916 -1.31829 0.178122 0.702925 -1.35503 0.138432 0.859709 -1.29912 -0.0262772 
1.00881 -1.24925 0.0867413 1.06208 -1.27481 0.0386611 0.912335 -1.25099 -0.140295 
0.786914 -1.28873 0.115017 1.10931 -1.28445 0.394379 1.00432 -1.24675 0.188862 
0.818555 -1.24328 0.229004 0.698557 -1.25825 0.110973 0.931688 -1.36134 0.216629 
0.857268 -1.28511 0.11898 1.19589 -1.36091 0.117153 0.947432 -1.35385 0.143598 
1.12377 -1.25891 -0.0979073 1.0265 -1.26075 0.275285 0.763166 -1.22432 0.0952159 
0.993162 -1.35377 0.19659 0.297589 -1.4153 -0.358831 0.199573 -1.37218 -0.327214 
0.0322034 -1.4135 -0.0345227 0.441405 -1.28068 0.531353 0.0339864 -1.41171 0.191283 
0.0880066 -1.32427 -0.106986 0.340234 -1.30685 -0.394474 0.0369045 -1.36216 0.0211612 
0.032648 -1.34528 0.488393 0.34652 -1.40639 0.198481 0.151821 -1.41314 0.444428 
0.323993 -1.34689 0.532516 0.088147 -1.39521 0.227266 0.326625 -1.35884 -0.265459 
0.218226 -1.35069 -0.129147 0.248615 -1.41429 -0.202069 0.124981 -1.33763 0.152966 
0.311978 -1.29149 0.502045 0.0915261 -1.33735 -0.219755 1.00554 -1.41418 0.472965 
0.234195 -1.40735 0.202624 0.218241 -1.34154 -0.0603611 0.403468 -1.35847 -0.282325 
0.150991 -1.32347 -0.00109083 0.582372 -1.41374 0.215278 0.469084 -1.4131 0.144584 
0.452539 -1.28904 0.341014 0.274011 -1.35691 0.322729 0.194436 -1.36248 0.157625 
0.311635 -1.34571 0.270384 0.802384 -1.4127 -0.226541 0.190297 -1.38803 0.264682 
0.356518 -1.34233 -0.062067 0.16168 -1.30576 -0.120844 0.394472 -1.41526 -0.141498 
0.293201 -1.35423 -0.0873785 0.465567 -1.33979 0.396088 0.479271 -1.25484 0.394878 
0.297935 -1.35988 -0.0221674 0.358628 -1.34946 0.0162362 0.800761 -1.29742 -0.212158 
0.379022 -1.36167 0.15516 0.336273 -1.3453 -0.179564 0.352698 -1.29993 0.131962 
0.377669 -1.29363 0.256136 0.34748 -1.33268 0.211593 0.526137 -1.23569 0.436633 
0.447879 -1.2951 0.108913 0.734774 -1.25905 -0.210304 1.05807 -1.36698 -0.1477 
0.310407 -1.30423 0.00394873 0.444006 -1.3049 -0.0197898 0.836507 -1.41477 -0.140695 
0.613581 -1.36226 -0.01142 0.650066 -1.36314 0.27514 0.501673 -1.35068 0.244409 
0.518473 -1.26051 0.345278 1.14795 -1.368 0.380302 0.628696 -1.36876 -0.0745068 
1.12045 -1.28369 -0.219157 0.725194 -1.29664 -0.116243 0.85375 -1.3246 -0.107764 
0.687002 -1.36358 -0.0514959 0.746512 -1.34154 -0.00647751 0.897908 -1.35459 -0.0555931 
1.04994 -1.23608 0.4675 0.63591 -1.31484 0.0923158 0.841223 -1.41501 0.254209 
0.652626 -1.25785 -0.0944469 0.895593 -1.35378 0.089732 1.09827 -1.31885 -0.000881914 
1.01075 -1.31103 0.00851883 0.813311 -1.37065 0.046603 0.753609 -1.33951 0.101835 
0.695775 -1.2982 -0.0350936 1.05058 -1.34983 0.155026 0.854851 -1.41217 0.0912212 
1.18038 -1.23135 0.410101 0.994501 -1.28998 -0.106208 1.0977 -1.40835 0.173047 
0.963336 -1.37554 -0.0367617 0.971584 -1.31635 0.0849772 0.859488 -1.20935 0.45573 
0.0341698 -1.37741 -0.227593 0.0314945 -1.41421 -0.173271 0.0354919 -1.41021 0.467895 
0.0724524 -1.41424 0.307615 0.0839639 -1.37149 0.528368 0.0998968 -1.41553 0.479546 
0.076962 -1.41064 -0.339127 0.166921 -1.39481 -0.39495 0.384424 -1.36054 -0.403686 
0.0336249 -1.41208 -0.285853 0.0514164 -1.41294 0.0665852 0.264901 -1.4091 0.470978 
0.0356109 -1.41055 0.363826 0.240093 -1.4087 0.370367 0.14282 -1.41182 0.527374 
0.301635 -1.35418 -0.332171 0.142895 -1.41429 -0.331471 0.145818 -1.41471 -0.269135 
0.640505 -1.41014 -0.320249 0.42429 -1.41293 -0.237063 0.115928 -1.41367 0.0605594 
0.0974735 -1.34394 0.422131 0.392137 -1.33181 0.529311 0.109642 -1.35189 0.315486 
0.500989 -1.4062 0.400779 0.175059 -1.37136 0.0534928 0.310248 -1.40789 -0.168351 
0.292562 -1.41419 0.0897197 0.209867 -1.4093 -0.0930857 0.355332 -1.34884 0.469525 
0.31677 -1.3223 0.415517 0.291554 -1.40986 0.249618 0.713821 -1.35035 0.518598 
0.207276 -1.35182 0.331955 0.411174 -1.35005 0.34965 0.453633 -1.34856 -0.224253 
0.383538 -1.35577 -0.218966 0.0655227 -1.35876 0.109082 0.455377 -1.40706 -0.173048 
0.243316 -1.35269 0.26728 0.263714 -1.35818 0.128529 0.420665 -1.35376 0.450527 
0.336713 -1.3209 -0.122277 0.457357 -1.41043 0.0498374 0.629131 -1.28049 -0.372369 
0.52363 -1.29204 -0.290468 0.569944 -1.41475 0.0649224 0.519048 -1.28588 0.489461 
0.648227 -1.41098 0.225357 0.550504 -1.35133 -0.296593 0.456631 -1.41397 0.209171 
0.680635 -1.36145 0.394749 1.07279 -1.29125 -0.269939 0.463097 -1.28395 -0.0797625 
0.428109 -1.34146 -0.0861403 0.501935 -1.32636 0.0149202 0.438345 -1.34184 0.0377889 
0.529454 -1.33101 0.355558 0.571518 -1.28968 0.535691 0.942803 -1.25468 0.531367 
[...]
POINT_DATA 1274
FIELD FieldData 10
VELOCITY 3 1274 double
0.00012261676296 -4.3930675975e-05 3.8153196237e-05 0.00048047659907 0.00013854563581 0.00022508946563 -0.0011198819967 0.00015761627858 0.0026297213528 
-8.4639261894e-05 0.00014556685711 -0.00010458664828 0.0012533732646 -0.00020366169121 0.0010067057577 -0.00016063720245 1.2206669854e-05 0.00013441244681 
-0.00098174356184 3.0977700541e-06 -0.00011188346287 -0.00035894688216 0.00013805996772 -7.210612428e-05 -1.074605191e-05 1.9868851639e-05 -0.00030006331615 
-8.8454081975e-07 -8.5143787947e-05 -0.00010332497567 -0.00014408399141 8.3294471183e-07 -5.4174612438e-05 -0.00044802749328 -9.6332846548e-05 0.00030541474379 
-1.0168966166e-05 -0.00011846779683 1.107678224e-06 -0.00012600212706 2.2244419107e-06 -4.1770683833e-05 -0.00015338111722 -5.0073979183e-06 0.00010051991264 
1.6517437526e-05 5.793700903e-05 -3.0663406862e-05 -8.4369398979e-05 0.00014602506842 2.8894263891e-05 -0.00028651490835 -0.00011193377753 -6.9239118409e-05 
4.5072476474e-05 -0.00016460303698 -0.00028000270738 -3.3735707632e-05 -4.2559742667e-05 9.3259861181e-05 0.00025870250162 -0.00010470618372 -6.3815534755e-05 
0.00011906729647 1.7968407341e-06 -0.0001054749972 -0.017356942557 0.010792033886 -0.015776831116 -0.00030063686041 3.6462907956e-06 4.8698850775e-05 
-0.0001341052817 -0.00011810818027 0.00029048288627 0.017337884561 -0.0054326403123 -0.003348572075 -9.7950549691e-05 -0.00025096318737 0.00030494688108 
-0.00024635802761 -7.477077157e-05 -6.5847776841e-05 -0.00018879554759 -6.4100086662e-05 0.00016696587537 -0.00023962113093 -3.4513871739e-05 -0.00011870946531 
-0.00019975407353 -0.00012192798601 0.00025411413141 -8.2524874854e-05 5.9715134449e-05 -0.00011881166895 -0.00034441032817 -0.00026350485586 0.00019368711778 
6.7643571975e-05 -0.00019651373627 -2.9024666775e-05 9.6095558927e-05 -8.9597666278e-06 -1.3402412481e-05 0.00021081193261 -0.0003076870038 -0.00016451809076 
-0.00016187714095 -0.00013637957079 -0.00013172554863 -8.3472355002e-05 -0.0002504837779 0.00021922229374 -0.00014296499197 -0.00063318296253 0.00091040570707 
0.0022358628395 0.00017309870549 -6.8107918893e-05 -4.0904945126e-05 -0.00016261651874 1.3543168024e-05 -6.8407742281e-05 6.2495133115e-06 -0.00011035713214 
-0.00011637989598 7.5048514602e-06 -0.00016773490637 0.00017960627938 -4.7361646883e-05 -0.00011159044604 -0.00022143975736 -5.1903861255e-05 0.00039361890767 
0.00050213360548 -0.00034218370032 0.00028512816773 -8.0068670189e-05 -0.00024415510256 3.9264422504e-05 -0.00051709211285 -9.0836638822e-06 0.00019681848445 
-0.00019127282201 -5.2547286724e-05 -0.00016802412018 -0.00027304832841 -7.2745632101e-05 7.9506605195e-05 0.00011546233044 -0.00014310489054 -4.1813492268e-06 
-1.5183870078e-07 -0.00063188251996 0.00015179202502 -0.00019458884269 -4.0852613234e-05 -0.00025397112524 0.00010217967405 4.7392722141e-06 -0.00024734523852 
0.0040778682137 -0.0052540314752 0.0085736426463 -0.00054191180549 0.00014858167861 -0.00041588815665 4.0595894704e-05 4.3045016753e-06 1.4425056422e-05 
0.00018947635461 4.8800823599e-05 6.75734348e-05 -0.00015225596632 -8.9878891734e-06 0.00010538175945 -9.8470680043e-05 -7.0632350753e-06 0.00026079386134 
-6.1142864047e-05 -3.8987291357e-05 0.00010045452966 -9.6275183652e-05 -0.00023223382963 0.00015059897547 -0.00079292861299 6.1279641919e-06 0.0002051626191 
-0.00072823911332 0.00025528147435 -0.0004855523666 -6.877262236e-05 -0.00023166309311 -3.8653760552e-05 -0.00013206959078 -0.00010517495653 -0.00012926759075 
-0.00016317357657 -5.7845507567e-05 0.00022747251546 -0.00018413359989 0.00010456820818 0.00017267180701 -0.00017233689552 5.1566133965e-07 -5.6734583453e-05 
-0.00099401313203 0.0010354857767 0.0010265660407 -4.8677796559e-05 -6.4684067297e-06 0.00012490785397 6.6919518182e-06 -0.00026919876203 0.00024426904707 
-7.1545136299e-05 9.1045845129e-05 0.00023822717078 -0.00028306748654 0.00021960477648 -2.1204601638e-05 0.0001054161649 -0.00011738076078 -0.00013480233421 
-0.00014656299927 3.1155303303e-05 7.8995669042e-05 -0.00021742108715 -9.6901659611e-05 7.3746738657e-05 3.8826109481e-05 -5.9263404164e-05 -6.8831359276e-05 
9.3090112848e-05 -4.9642865729e-05 0.00010361334258 0.0005189763025 4.4851717803e-05 0.00024483564838 -0.0016757811568 0.0002599422519 0.0014869480108 
-0.00036888963197 -1.2904593386e-05 9.137106834e-06 -0.00022982788953 -0.00012077991792 0.00012712309459 -0.00028897052951 -4.1028458726e-05 -3.663223818e-05 
-8.2869212257e-05 -0.00035079570322 -0.00058951285933 -3.8089240766e-05 1.4486627853e-05 -0.00031427230824 0.00030496513641 -0.00019965874689 -0.00013276138828 
0.00014554118051 -0.00014221552437 -1.3381277768e-05 0.00011764658716 -7.7033497589e-05 0.00012523099348 -5.0233572527e-05 -0.00048346971445 -0.00023171254001 
-0.00021480577544 -2.4023458536e-05 -0.00013662994038 6.8238981164e-05 9.2573175371e-05 0.00015030358031 -0.00012455296156 8.9541167721e-05 -2.8159441009e-05 
9.9512701485e-05 -0.00027574146554 -0.00021228299469 -1.1619936749e-06 3.3880814647e-05 0.0001334202898 -0.00010091884506 -0.00029456518702 -0.00022510254312 
-8.7491081041e-05 0.00011501114131 -1.3773330933e-05 0.00026092102742 -5.3749194735e-05 0.00027326551425 -6.0136797707e-05 -8.2525613904e-05 -0.00012464365535 
-0.00042151730568 0.00053093543757 -2.6362694751e-05 -1.0917041474e-05 0.0020308466158 -0.00075441828696 0.00026867234203 -0.00011016046228 -0.0004073530395 
-0.00024554954492 0.0001280880374 9.9471392744e-05 -2.8708941644e-05 -0.00028453952342 -3.4521070495e-05 -1.2216704775e-05 -0.00011086267675 -0.0001853234356 
-0.00012082236956 -0.00043046406498 -9.2592799384e-06 -7.1899525731e-05 4.1470969003e-05 -0.00014804039724 4.6326338026e-05 -1.59236436e-05 -0.0002163667577 
-0.00036090788369 -0.00063136396032 0.00032396718896 0.00011565772507 3.7713615114e-05 -6.9709058559e-05 0.0010287812412 0.00087146674037 -0.00026702442663 
7.163583502e-05 -0.00027833498314 -0.00060499277366 -0.00010704398343 -0.00033665875674 0.0001206604778 -7.0898393928e-05 -5.5966747578e-05 0.0008385555672 
4.9624632308e-05 -1.5424297057e-05 5.488477038e-06 4.9878845336e-05 -0.00010352322435 -0.00017705072422 -6.3622688212e-05 -0.00012274232173 2.8142222178e-05 
0.00012629350887 9.8520411727e-05 8.7013740157e-06 -0.00039774150655 2.9360995769e-05 0.00072248848522 -3.4962198565e-05 -0.00023188833824 -0.00019951131235 
0.00010290980296 -0.0004145988307 -0.00020620886133 7.6741450714e-05 2.3704687853e-06 -0.00016599730976 -0.00020480873195 -2.0308292458e-05 -7.2938353839e-05 
-0.00020100072738 -0.00027658583085 -4.4955941236e-05 -0.00011976204004 -4.3718664083e-05 0.00019195352559 -0.00035739068015 -0.00013157014643 -8.1782440904e-05 
-2.1387545309e-05 -2.6631140268e-05 -0.00011697488048 -3.0303573629e-05 -0.00011962388391 -5.636937024e-05 -0.00040487672332 -0.00018981976683 0.00038400779684 
-0.00038574362548 4.7431572551e-05 8.9754523645e-05 9.8272029225e-05 -0.00019760302197 -0.0001991678665 -0.0002983154561 0.00023468170329 -0.00029395398247 
-0.00014048084079 -0.0001591208108 -8.7886979758e-05 1.2799032901e-07 2.4109047205e-06 -6.0976914777e-05 -0.00028002882287 -0.00016755970803 -0.0003034232539 
-7.5578184628e-05 -0.00031095265974 5.1107951859e-05 -4.7342663415e-05 -1.1756376434e-05 -0.0001718742467 -5.0077287413e-05 0.0001163871955 -0.00018453239214 
3.6532651957e-05 1.171294852e-05 -1.7325669317e-05 -8.2371675632e-05 -3.3473279367e-05 0.00029139559377 0.00015536758128 0.00015673017751 -0.00018611672484 
-0.00011285988303 -1.1379780583e-05 -0.00011764030472 5.1641265858e-05 1.0496684776e-06 4.5859900186e-06 -0.00015908277119 2.361732446e-05 -5.9460400076e-05 
-8.2583562901e-06 1.3604373993e-05 -2.1462128781e-05 -0.00016862150312 2.3516801674e-05 -0.00014386185765 0.00011773290757 1.1497656838e-05 -2.9669457258e-05 
0.00012036574133 4.0507923718e-05 -1.8715186982e-05 -4.7200536624e-05 -0.00017898663924 8.4913108803e-06 -5.5156923291e-05 -7.5412742946e-06 -0.00018609564484 
3.6410054378e-05 -0.00013068886337 -0.00022071824141 -2.0835631602e-05 9.1509522178e-06 -2.57445975e-05 -0.00039531255218 1.8269376956e-05 -0.00014733370373 
-7.7246202998e-05 0.00013298312084 0.00020409724668 -0.00015701477427 -0.00013217582246 8.1818644462e-06 -0.00013271627005 -6.2391090913e-05 -9.0362799816e-05 
-0.00013630934 -0.00021279776509 0.00021632713984 -0.00018654139207 -5.9550174397e-07 0.00012642880285 -5.4628927348e-05 6.368609993e-05 0.0001107164191 
-6.618130367e-05 -6.8900444554e-05 -0.00015596525035 -9.6315093607e-05 -0.00014367886476 -0.00015699312604 0.00013084503602 -0.0003320868337 -0.00045512534206 
-0.00036993573366 7.7464786042e-05 -0.00016735463463 0.00014671943387 -0.00023087001982 3.5936110758e-06 -0.00063266704513 -0.00012855643555 -0.00011406726943 
2.2897709107e-05 -0.0006374182048 4.584259423e-05 8.6643285106e-05 -1.9922974427e-05 -8.7759198607e-07 -1.4123614575e-05 -5.4340679629e-05 3.6350946627e-05 
-2.577403652e-05 -0.00017929788865 -0.00011341110279 -0.0001733198831 -5.2836032358e-05 0.00034939881242 8.2680862287e-05 -4.2404647338e-05 -1.1194067281e-05 
-0.00010408476042 0.00013326208039 2.475568015e-05 -0.00026298861243 0.0001357957498 0.00030176447184 -0.00049739186202 0.00027175215408 -3.5776962624e-05 
-0.0001381576448 2.5427479361e-05 3.0040897103e-05 -0.00075596377432 2.2432041229e-05 1.0030471758e-05 -0.00011275720183 6.293185272e-05 4.7299769336e-06 
0.00019828261202 -0.000180923558 0.00019922307453 -0.0002331019505 1.3373219636e-05 -4.6626547373e-05 -0.00012058591737 -0.0001123814197 4.9465767585e-05 
-4.829786841e-05 0.00050578406598 0.00024846873441 -3.1711027538e-05 -4.1915044542e-06 2.0997445322e-05 -0.00020565197073 -9.0182019032e-06 -0.00023027388139 
-3.4097739734e-06 -0.00027143043595 1.2358380727e-05 -0.00011105523775 -7.5647171153e-05 0.00010193408447 6.9031110917e-05 0.00013960506824 0.00011692151384 
-5.1131517246e-05 0.00019530453927 1.1388958509e-05 -6.0640962536e-05 1.3745563839e-05 8.1165249726e-05 0.00015031112073 -0.00030527643223 -0.00013835746224 
6.394158227e-05 0.00012368078696 7.3298201063e-05 1.440444858e-06 -6.4452713237e-05 0.00025277531095 -0.00064396464203 -0.00039243088466 -0.0015693537583 
-8.2477388012e-05 -9.4679738682e-05 -0.00010801225315 -0.00013093886179 3.2855508086e-05 -9.9076900432e-06 6.8855518768e-05 -3.443965315e-05 -0.00021401001406 
1.2416844918e-05 -0.00010291444848 -7.4725728153e-05 -0.00028561332615 -0.00013430235474 0.00011614402875 -7.7690718804e-05 1.3412000334e-05 0.00011361422005 
0.00012745763232 -1.0088792043e-05 -0.00025644308042 8.2622536964e-05 -0.0001737001325 -0.00011268952557 -0.00010039645841 -4.5837397147e-05 0.00027724499355 
-3.8247422603e-05 -0.00010025271324 -0.00012454878801 -0.00027342109914 -0.00096225999927 -0.00079772382544 -9.3245959034e-05 2.2973457809e-05 0.00019352484174 
9.9741487565e-05 -0.00015326530677 -7.4424939179e-06 -0.00018574898074 7.1881662563e-05 8.1647088114e-05 -0.00024940199018 -0.00024208657115 -0.00043924693904 
6.7261353018e-05 4.0443929032e-05 -0.00018831524269 -5.8963049618e-05 -6.5684688304e-06 3.3812827889e-05 0.00022957952882 0.0001215154495 0.00018264579833 
2.9532695027e-05 -0.00017179972256 -0.00019683353169 -0.00014254854448 -0.00019988433219 0.0002007155247 -0.00012368295532 -0.00015141250896 -0.00010803145928 
-0.00016058813274 -0.00055788460329 -0.00023624088874 -0.00024602883064 5.7134931804e-05 8.5047076693e-05 3.0219560455e-05 2.2323546218e-05 -1.8360198779e-05 
-1.6857121681e-05 -2.6267123368e-05 -5.4853324103e-05 -8.8932261943e-05 -2.2964595902e-05 -4.4579126231e-05 -1.6646556602e-05 -0.00024256974139 0.00012001486964 
0.00014586098264 -0.00028307534518 -6.3154656476e-05 -7.2274090031e-05 -8.3709396251e-05 -4.1149582915e-07 1.0580880659e-05 -1.847676649e-05 -1.9842653229e-05 
3.4534767755e-05 8.1971817116e-05 -0.00027341329011 -0.00020322803718 -4.1350995825e-05 0.00019443718879 -0.00029777461589 0.00024173504659 -0.00024063989582 
-0.00010951115613 -7.6075329375e-05 2.9559922695e-05 -0.00011554781672 0.000148229129 -1.2424572508e-05 -0.00011666225477 -9.9331076133e-05 -0.00026218133937 
0.00018264944153 -7.19122453e-05 -3.0568066648e-05 -0.00061799765893 7.3975392207e-12 0.00080473983807 -0.00018195316715 -2.5052683353e-05 6.2269811692e-05 
0.00011828947689 -0.00013486125857 -8.1116386312e-05 -6.5867981916e-05 0.00011681842445 -9.2912922645e-05 -0.00018320742073 5.0370985593e-05 6.9613437146e-05 
0.00010251908367 -0.00012288778656 -2.2047280826e-05 0.00022732367402 -0.00012855271462 2.2775746786e-05 2.3347158607e-05 7.8104652104e-05 3.0517332704e-06 
-6.7184577989e-05 -0.00022478368795 0.00011169811902 2.1364321956e-06 -1.7666136786e-06 0.00013142004996 -6.3848063206e-05 0.00010704628577 4.9647885782e-05 
-8.2758371361e-05 -5.4284081162e-05 4.8652817217e-05 -0.00031968420679 -0.00021279693844 -0.0003163461537 -0.00017331468593 -0.00010660008725 -0.00010020099074 
-0.00037999407261 0.00025049531963 -0.00064325781038 8.8326527546e-05 -1.8240625437e-05 -0.00016117624853 -3.086503659e-05 -0.00040147948507 -0.00019726662044 
0.00012244488889 -9.9132465665e-05 -6.1181328527e-05 0.00017779392684 -0.0001270465971 7.2290221243e-05 8.8581335108e-05 -1.9950458295e-05 0.00029368457021 
3.3940516891e-05 -2.7283555006e-05 9.7805990445e-06 -7.3590339794e-05 -0.00014593417892 -0.00036260750075 6.9725753755e-05 -0.00018276635229 9.2486698225e-05 
-4.5628987183e-05 4.014000428e-05 6.7255463244e-05 -0.00023340333783 -3.3916587117e-05 8.0893398754e-05 0.00011640592755 -0.0002318041011 -5.4791823326e-05 
-2.6889898589e-05 -0.00013125019043 0.00034903146725 6.1239112121e-05 -0.00015566793213 3.6402166868e-05 0.00012897153055 -0.000458605897 0.0002943737549 
-0.00075698098148 0.00035038361994 -3.0657441996e-05 -0.00022647052759 -8.5426687166e-05 -0.00025886227301 -0.00021829310782 -1.6877626675e-05 0.00031281698797 
-0.00017963895288 0.00012528976113 -6.4477526011e-05 4.0275348455e-05 -0.0002986287746 1.3568320536e-05 -3.5396602012e-05 -6.493775266e-05 5.447668582e-05 
-0.00019003282651 4.5476776598e-05 0.00027568932373 -0.00016706898588 -5.8789096809e-05 6.481472272e-05 3.3683221492e-05 1.0649660298e-05 4.8036560787e-05 
-7.4901927901e-05 -5.4292350129e-05 -0.00014107211944 -9.7596669449e-05 -9.7528405805e-06 0.00021044490747 -5.1205262225e-05 -0.0001305551636 5.8469302576e-05 
-0.00021937831137 -0.00037459430693 -2.6739556434e-05 -0.00010430828532 0.00015543790594 -0.00016492876213 1.283618555e-05 -0.00020936680416 -0.00014653053928 
5.8794421367e-05 -0.00012417408261 -6.6931800196e-05 5.3123144539e-05 -0.0001949628886 -0.00037458115245 -0.000116412388 -3.5362350886e-05 0.00014490807412 
1.4830281273e-05 2.1455222505e-05 9.3102302765e-05 -0.00037866789016 -7.6860572525e-05 7.5522102765e-05 -4.8470089553e-05 -1.6070740085e-05 4.301524843e-05 
1.0416588307e-05 2.7031105951e-05 4.5309884133e-05 0.00010178146519 -5.7589790083e-05 1.6338079479e-06 -0.0002997657895 3.2520543819e-05 -0.00012622642541 
7.3650776962e-05 -0.00028761819549 -0.00012873141191 -0.00016125705536 -5.3573040411e-05 0.00012158722461 -2.0824888439e-06 -0.00026889709621 -0.00019821826679 
2.5925066297e-05 -0.00012875508963 -8.9094012081e-05 0.00015110831841 -0.00012699766127 7.4402001188e-05 -0.00018940868054 -5.1287277705e-05 0.00031150097518 
-0.00019808773628 -0.00013202979058 -0.00019510210803 6.586259671e-05 8.7448896888e-05 -0.00011261974561 -1.7417822431e-05 1.9290826105e-05 0.00018865674488 
-0.00011103385574 -0.00011983443881 -0.00024157562542 7.5273394447e-05 -0.00022165381252 0.00027682910559 -0.00043854329298 -2.6367633138e-05 -7.5233976253e-06 
-0.00012618339338 -4.6114284356e-05 7.9033310702e-05 -7.0105106564e-05 0.00011287530752 1.1624050023e-05 0.0098042698373 0.011134109567 0.025037493186 
-2.1475332809e-05 0.0001205817491 1.2958538297e-05 4.9524624431e-05 -4.3042688884e-06 -0.0001979906247 -7.3432209745e-06 -2.9105173127e-06 -1.6170556634e-05 
-7.5367260333e-05 -1.8406514614e-06 0.0002430810746 -0.00014056381098 0.0001311981934 -4.2435517077e-05 0.00016968492202 3.7512690787e-05 0.00029546504235 
6.7950422716e-05 9.1999406139e-06 -0.00012911468991 -1.1661208899e-05 -1.3466426182e-05 7.8278650701e-05 -7.4374945412e-06 -1.6725842727e-05 -4.2190140866e-06 
2.8836868458e-05 2.5282643301e-05 -6.3579009124e-05 -7.8139251778e-05 -2.4215989175e-05 -7.5865845063e-05 1.7000307798e-05 -0.00013544326786 6.1581197009e-05 
3.8019000461e-07 -4.8633272881e-05 0.00017623851806 5.4929731407e-05 -8.2953565541e-05 4.0000870399e-05 -0.00015500065584 3.2928693398e-06 -0.0024220274842 
-0.00016666221264 -4.9727684597e-05 0.00016010984703 6.916684153e-05 9.9169754853e-06 1.7248313661e-06 -4.3940737522e-05 3.186320272e-05 -1.368029734e-06 
-0.00013613499772 -1.1267233209e-05 -4.2576018371e-05 6.9363378356e-05 3.7437078747e-06 -6.201821418e-05 -0.00011898598651 2.4014470427e-12 -0.00011503410506 
9.9826995325e-05 2.2394508833e-05 -2.5618103846e-05 -0.00013163596859 5.4146218583e-06 -4.3900360077e-05 -0.00017784977566 3.2853051291e-06 0.00018504255746 
0.00011162436851 -5.4354885187e-05 -0.00025672897035 -4.3428035248e-05 -9.2081280566e-05 -0.00019253597594 1.0665509684e-05 4.2793765504e-05 5.6334194309e-05 
9.6802350505e-05 -3.786334785e-05 -0.00012311828015 -7.0241897905e-05 -0.00017982152373 -2.1334226837e-05 -0.00017390047088 3.7111117928e-05 -7.4206052253e-05 
-2.9182929692e-05 0.00022213628307 -0.00019459697284 -6.6989288625e-05 -5.8519586417e-05 -4.0227769095e-05 0.0002357309648 9.7137222814e-05 0.00019482260663 
-0.00039897284118 -0.0001177541674 0.00028731736922 -0.00042351484295 0.00016865063127 -0.00017560603628 6.0253585284e-05 -1.6414020821e-05 9.6225042962e-05 
2.8820412756e-05 -1.5536741208e-05 -9.0530069664e-05 -0.00011131950572 3.1104076785e-05 -6.5576946422e-05 -8.1977120074e-05 -4.8456003905e-06 1.2025420268e-05 
-0.00037612135569 -6.5768211657e-05 -0.00037454966791 -2.9782363427e-06 -0.00017223841013 -0.00040312986647 -0.0002013410371 -0.00012371355303 7.1469361953e-05 
5.0836493663e-05 -0.00010483316609 -7.4628508384e-05 -0.00015337214775 -0.00031979237986 0.00011724935966 -0.0009232685421 -0.00068247164755 -0.001294474023 
-0.00018729940472 4.4661160227e-05 -8.8364663051e-05 -5.2790107717e-05 -4.5077425065e-05 4.1870206296e-05 -0.0004574278185 3.3749168328e-05 0.00033384545831 
-0.00028709966798 8.4551960176e-05 0.00016254313283 5.560233893e-05 4.6748060226e-05 -9.7306772267e-05 -2.5772260363e-05 -0.00017536119591 -6.605300252e-05 
-2.9753984603e-05 7.5963663194e-05 0.00015549133552 -7.2772325198e-05 -0.00013955180471 0.00010801006115 -0.00018225382092 0.000114511606 -8.8319729502e-05 
-0.00013767136635 3.7853521615e-05 0.00018265272739 0.00015563662055 -2.8032203155e-05 -2.3370917281e-05 0.00025113804925 -0.00015317340877 0.00015666194715 
-0.00028466053713 -0.00037403018531 0.00010466497099 -8.655417413e-05 -0.00010316415548 4.4256694427e-05 -0.00014088132053 -0.00027359988604 9.6817747031e-05 
-6.7429691042e-05 -1.8246789151e-05 0.00012086962429 0.00013835896924 0.00015017256614 0.00010149986387 3.988454144e-05 0.00023425889884 -0.00011403518311 
0.0001370053507 -0.00021435149669 -0.00032751439502 -0.00024919026857 -0.00028895664961 -0.00023489910435 -0.00019942550177 -8.9568726687e-05 -2.5699243138e-06 
-7.851980525e-05 0.00011143039074 -0.00037565948008 -0.00011126941306 1.8831010487e-12 4.984577673e-05 0.0001254437667 -0.0002145554553 -0.00029142850664 
4.3439767833e-05 0.00035039693549 7.1174689587e-05 -6.5882369816e-05 0.00015490903589 0.00025388917319 -4.3889899926e-05 1.2699465826e-06 -0.00012729377731 
-5.7618435251e-05 -0.00013478439863 0.00019680959436 -0.00011554241091 -0.00011125385117 6.1249039786e-06 5.9060226732e-06 -2.8211286686e-05 -1.7059305755e-05 
0.00010941791883 2.9641053399e-05 -6.2342021418e-05 7.4365019284e-06 0.00010509578034 -7.8410548405e-05 -8.9250661574e-05 -6.3279490452e-05 -0.00010540957629 
-0.00012407273318 0.00023590056382 0.00027798920036 -0.013002981267 3.6986143831e-13 -0.0011329227269 -0.00012178948111 -3.5181276461e-06 0.00057807640921 