# vtk DataFile Version 4.1
vtk output
ASCII
DATASET UNSTRUCTURED_GRID
POINTS 1274 float
0.27002 -1.2924 -0.0425802 0.278837 -1.30048 0.0996828 0.332046 -1.28456 0.286923 
0.163036 -1.31297 -0.20397 0.358581 -1.23717 0.0629755 0.430844 -1.23333 -0.0370023 
0.387821 -1.28938 0.323285 0.502493 -1.21434 0.466098 0.518517 -1.23307 0.00193669 
0.64465 -1.25222 -0.00409589 0.542332 -1.34777 0.193286 0.640887 -1.21797 0.43234 
0.848713 -1.26742 -0.156174 0.854816 -1.23465 -0.0813795 0.67211 -1.27369 0.151382 
0.763685 -1.27053 0.257154 0.717583 -1.23746 0.205321 0.78758 -1.17157 0.0143511 
0.671119 -1.20666 -0.0517125 0.674373 -1.34369 0.00878045 0.73161 -1.17452 -0.0399094 
0.695114 -1.29272 0.243346 0.576267 -1.2125 0.282046 0.648291 -1.24558 0.213082 
0.902915 -1.18385 -0.0648213 0.510564 -1.20891 0.0921349 0.730712 -1.15403 0.350574 
0.925437 -1.10672 -0.0091206 0.930999 -1.29827 0.0174443 0.837203 -1.22354 0.0456579 
0.94135 -1.17651 -0.00250182 0.666905 -1.20668 0.0780124 0.618194 -1.1726 0.384538 
1.0725 -1.17365 -0.168744 1.03004 -1.23633 -0.11745 0.684414 -1.14925 0.248253 
0.804589 -1.27333 -0.00497339 0.669759 -1.22163 0.269363 0.585369 -1.1561 0.148766 
0.932431 -1.11609 0.0728634 0.853837 -1.19374 -0.156476 0.807516 -1.18885 0.183105 
0.855932 -1.16931 0.132495 0.814114 -1.15404 0.241235 0.878062 -1.15715 0.0469955 
0.97971 -1.19333 -0.202304 0.89478 -1.21296 0.283307 0.881723 -1.17148 0.218534 
0.473937 -1.29431 -0.303994 0.168404 -1.33197 0.281445 0.145729 -1.35954 -0.0646233 
0.0370373 -1.32807 0.171422 0.291548 -1.34371 0.47221 0.256479 -1.3384 0.38525 
0.243484 -1.31431 0.164787 0.382024 -1.35381 0.28781 0.14677 -1.34821 -0.262037 
0.361305 -1.41001 0.0563425 0.623347 -1.28618 -0.212197 0.218959 -1.35351 -0.222433 
0.408224 -1.34808 -0.150697 0.373083 -1.35019 0.400696 0.405369 -1.2899 0.393535 
0.279669 -1.34843 0.209969 0.21401 -1.33849 0.00874109 0.476358 -1.22519 -0.157798 
0.417871 -1.36076 -0.0229006 0.593666 -1.34659 0.303489 0.440287 -1.28295 -0.139853 
0.39597 -1.23099 0.251578 0.555334 -1.35693 -0.014876 0.438062 -1.25811 0.184919 
0.341356 -1.29968 0.0653235 0.355114 -1.27016 0.442619 0.533339 -1.24333 -0.0727389 
0.624153 -1.4128 0.0990527 0.579535 -1.23121 -0.237875 0.227773 -1.2779 -0.208941 
0.577335 -1.35306 0.0521993 0.53978 -1.29869 -0.0285253 0.46241 -1.21964 0.228099 
0.463624 -1.26524 0.436452 0.581862 -1.33402 0.468651 0.460547 -1.27976 0.263648 
0.52688 -1.28325 0.29228 0.454647 -1.36002 0.112943 0.608198 -1.2985 -0.0400355 
0.65582 -1.22291 -0.208281 0.971222 -1.27445 -0.28165 0.590984 -1.27855 0.167866 
0.518272 -1.2608 -0.241788 0.761264 -1.28519 0.334376 0.650983 -1.31773 0.202602 
0.598875 -1.22058 -0.0431147 0.948503 -1.23062 -0.0476101 0.74742 -1.24705 -0.0407877 
0.690474 -1.28334 0.0478514 0.873072 -1.34803 0.16404 0.613992 -1.24953 0.0857402 
0.768277 -1.23001 0.385285 0.783698 -1.23565 0.464077 0.588328 -1.25634 0.233656 
0.822036 -1.35932 0.210729 0.65154 -1.20344 -0.129475 0.700444 -1.22665 -0.00197068 
0.605988 -1.21572 0.144302 0.747919 -1.2309 0.0498421 0.805204 -1.29699 0.188113 
0.838952 -1.23613 0.346248 0.693663 -1.23576 0.32768 0.815044 -1.22003 0.532536 
0.913423 -1.18261 -0.257162 0.755998 -1.30037 0.0561066 0.509098 -1.19573 0.187639 
0.795061 -1.18046 0.423574 1.14275 -1.18512 0.0457364 0.616793 -1.212 0.532392 
0.755488 -1.21503 0.307233 0.698987 -1.23433 0.39683 0.62845 -1.19478 0.0151444 
0.950311 -1.25039 0.229302 1.10105 -1.23536 -0.160029 0.840136 -1.3024 0.0584464 
1.02294 -1.16748 -0.101701 0.906796 -1.27944 0.0779679 0.684137 -1.19665 0.155655 
1.21619 -1.1661 0.384805 0.772328 -1.2393 0.165581 0.938196 -1.1956 0.180039 
0.96636 -1.15778 0.413872 1.16878 -1.20917 -0.144651 0.911719 -1.21939 0.110145 
1.00637 -1.1874 0.0447698 0.877463 -1.22652 0.183359 1.09174 -1.22253 0.00907325 
0.95638 -1.23748 0.0333969 0.0876002 -1.41341 -0.247213 0.286874 -1.35785 -0.210537 
0.430675 -1.40919 -0.397625 0.0351682 -1.35983 0.312292 0.214675 -1.32076 0.482816 
0.0973849 -1.40799 0.157969 0.214843 -1.34307 -0.402017 0.517691 -1.32117 -0.348312 
0.103051 -1.35988 -0.377179 0.488313 -1.34458 0.461237 0.256034 -1.27912 0.526749 
0.153367 -1.35251 0.37439 0.242212 -1.41178 0.298416 0.0961655 -1.35635 -0.0127369 
0.284205 -1.32537 -0.145758 0.079661 -1.3585 -0.288926 0.481095 -1.35251 0.312575 
0.349259 -1.40766 -0.0299243 0.129883 -1.34435 0.231788 0.215197 -1.33464 0.0979969 
0.22026 -1.29438 0.288912 0.331138 -1.28972 -0.301086 0.271016 -1.34655 0.0449472 
0.42407 -1.3194 0.172509 0.125023 -1.27981 0.202808 0.527574 -1.28894 0.416758 
0.897669 -1.2985 0.533049 0.541617 -1.35041 0.42315 0.242921 -1.29203 0.225874 
0.319275 -1.35501 0.157675 0.322367 -1.35524 0.0933794 0.45526 -1.27243 -0.211654 
0.520319 -1.32467 -0.247035 0.509924 -1.29037 0.207313 0.534056 -1.22115 0.527675 
0.65383 -1.28435 0.417676 0.773252 -1.34306 0.460604 0.432657 -1.3454 0.237435 
0.676943 -1.41468 0.135041 0.604278 -1.20765 -0.38563 0.604663 -1.35866 0.19049 
0.826403 -1.21004 -0.325557 0.41161 -1.29491 -0.313764 0.859361 -1.28361 0.291175 
0.750294 -1.28658 0.420262 0.410194 -1.23485 -0.107226 0.591147 -1.27659 0.293212 
0.675146 -1.2653 -0.155248 0.518041 -1.24957 0.147293 0.883647 -1.29169 0.216337 
0.971295 -1.38276 0.0920425 0.54596 -1.27968 0.0708818 0.980898 -1.24308 0.442099 
0.668939 -1.30132 0.31142 0.919662 -1.28426 -0.0764229 0.717629 -1.1844 -0.221304 
0.736078 -1.22035 -0.139631 0.796014 -1.29559 -0.0731192 0.824037 -1.35062 -0.0378512 
0.73514 -1.30571 0.18252 0.703116 -1.34838 0.144489 0.874153 -1.29329 -0.0202783 
0.9912 -1.23854 0.102898 1.04223 -1.24706 0.0403003 0.934303 -1.23499 -0.143615 
0.772969 -1.287 0.127425 1.06347 -1.23899 0.404664 0.997084 -1.22592 0.18085 
0.829876 -1.2312 0.239573 0.725736 -1.23619 0.118982 0.947019 -1.35366 0.223404 
0.85498 -1.27528 0.131939 1.18224 -1.35895 0.124677 0.950515 -1.35199 0.149577 
1.09938 -1.22626 -0.0622677 1.01817 -1.24935 0.273513 0.786016 -1.19255 0.110148 
0.985994 -1.30584 0.202645 0.29789 -1.4153 -0.358696 0.199487 -1.37277 -0.32716 
0.0322036 -1.4135 -0.0336939 0.443348 -1.27939 0.531353 0.0339829 -1.41171 0.191217 
0.0896035 -1.32453 -0.107347 0.342177 -1.30391 -0.39447 0.0369008 -1.36276 0.0214702 
0.0326469 -1.32648 0.522036 0.347733 -1.40639 0.199277 0.15253 -1.41314 0.444403 
0.323291 -1.3372 0.532516 0.0882185 -1.39584 0.227369 0.326625 -1.35763 -0.263603 
0.219523 -1.35137 -0.128787 0.247781 -1.41429 -0.201078 0.126973 -1.33832 0.151863 
0.315033 -1.28723 0.492811 0.0896429 -1.33587 -0.219765 1.01548 -1.41418 0.470769 
0.235629 -1.40735 0.203017 0.218488 -1.34121 -0.0601522 0.40188 -1.35823 -0.281538 
0.151783 -1.32411 -0.000347101 0.582872 -1.41374 0.214771 0.469909 -1.4131 0.144528 
0.458735 -1.2871 0.340745 0.27663 -1.35634 0.323383 0.196666 -1.36233 0.158774 
0.314553 -1.34615 0.270673 0.80188 -1.4127 -0.226137 0.191946 -1.38767 0.264826 
0.36202 -1.33963 -0.0547798 0.163284 -1.30595 -0.121076 0.395502 -1.41526 -0.14216 
0.291872 -1.35579 -0.0815068 0.475018 -1.33703 0.392866 0.500749 -1.24687 0.378176 
0.300489 -1.35842 -0.0165017 0.35994 -1.34972 0.0165583 0.799501 -1.29494 -0.209513 
0.380173 -1.36089 0.156937 0.342726 -1.34752 -0.173412 0.35006 -1.29568 0.137607 
0.391927 -1.29482 0.257537 0.358279 -1.33413 0.215797 0.545593 -1.21838 0.416702 
0.454769 -1.29394 0.117014 0.731498 -1.25183 -0.204692 1.05235 -1.36318 -0.149011 
0.310722 -1.3027 0.0117398 0.449615 -1.30539 -0.0201469 0.833414 -1.41477 -0.124066 
0.616301 -1.36377 -0.00858608 0.652055 -1.3507 0.259372 0.525411 -1.3413 0.257202 
0.558944 -1.25207 0.353357 1.13587 -1.36791 0.378187 0.634286 -1.36513 -0.0693425 
1.09893 -1.24217 -0.225418 0.731907 -1.2832 -0.101656 0.857611 -1.30698 -0.101447 
0.693672 -1.36142 -0.0489715 0.76136 -1.33643 -0.00123836 0.895809 -1.35314 -0.0569309 
1.04931 -1.22503 0.464828 0.643721 -1.31136 0.0974757 0.839236 -1.41502 0.256216 
0.645367 -1.2555 -0.0865849 0.896198 -1.35391 0.0924621 1.09399 -1.31759 0.00735934 
1.01049 -1.30613 0.0213687 0.806878 -1.36273 0.0446777 0.752614 -1.34083 0.103976 
0.697184 -1.2924 -0.0306973 1.03888 -1.34807 0.165193 0.856329 -1.41212 0.0904602 
1.08618 -1.14564 0.310333 0.989093 -1.27615 -0.0734357 1.09587 -1.40834 0.184043 
0.966692 -1.32828 -0.0295125 0.973241 -1.31163 0.0879367 0.901419 -1.1821 0.455302 
0.0342017 -1.37882 -0.225943 0.0314914 -1.4142 -0.170696 0.035491 -1.41021 0.468268 
0.0732053 -1.41424 0.306746 0.0857584 -1.37183 0.528369 0.100094 -1.41553 0.478749 
0.076389 -1.41064 -0.338748 0.167168 -1.39567 -0.394954 0.384849 -1.36072 -0.403686 
0.0336231 -1.41208 -0.285015 0.0529237 -1.41294 0.0670622 0.266288 -1.4091 0.471237 
0.0352472 -1.41055 0.362049 0.23997 -1.4087 0.369617 0.144786 -1.41182 0.531202 
0.311147 -1.35507 -0.333015 0.14237 -1.41429 -0.331513 0.146899 -1.41471 -0.269274 
0.641503 -1.41013 -0.320218 0.425498 -1.41294 -0.237447 0.117538 -1.41367 0.0624396 
0.103328 -1.34548 0.418464 0.392872 -1.33178 0.529312 0.109642 -1.35248 0.314504 
0.50428 -1.4062 0.399726 0.173603 -1.37034 0.0555648 0.310215 -1.40784 -0.168522 
0.294026 -1.41419 0.0901711 0.210924 -1.40911 -0.0922739 0.360449 -1.3474 0.466676 
0.317189 -1.32046 0.41498 0.292709 -1.40986 0.250343 0.711007 -1.34859 0.523937 
0.20954 -1.35234 0.330815 0.418272 -1.34868 0.349656 0.456579 -1.34872 -0.2286 
0.386782 -1.35576 -0.216854 0.066305 -1.35891 0.110167 0.456555 -1.40706 -0.173423 
0.244958 -1.35242 0.268465 0.266148 -1.35868 0.127157 0.424259 -1.3452 0.439068 
0.346786 -1.32101 -0.117213 0.458618 -1.41043 0.0483974 0.643885 -1.26687 -0.368729 
0.539749 -1.28425 -0.296162 0.569886 -1.41475 0.0641044 0.523059 -1.28584 0.487268 
0.648584 -1.41098 0.225815 0.556301 -1.34955 -0.296355 0.457608 -1.41397 0.209623 
0.676485 -1.35637 0.391161 1.07219 -1.28921 -0.269906 0.472598 -1.28285 -0.078238 
0.43215 -1.34202 -0.0836571 0.50501 -1.33019 0.0157241 0.440714 -1.34108 0.039257 
0.537739 -1.32097 0.353411 0.572813 -1.2899 0.535414 0.940477 -1.24668 0.530155 
[...]
POINT_DATA 1274
FIELD FieldData 10
VELOCITY 3 1274 double
-0.033939979803 0.039245514019 -0.057344354184 -0.093776917089 0.010145872961 -0.052073328388 -0.10182920223 0.015695207851 0.036913807761 
-0.043683564951 -0.0058052450606 -0.04186611399 -0.77280474245 -0.47538111229 0.074143470708 -0.20557553756 0.04029495122 -0.28045519306 
-0.076599422247 -0.024393725204 0.016840548318 -0.10777345348 -0.0071418572686 0.028038166949 -0.18456521019 -0.027722740461 0.028841635638 
-0.25667556468 0.10974550645 0.013367998942 -0.11583787416 0.051597697774 -0.038499284872 -0.030617754482 0.040607769945 0.0039256080647 
-0.10134306843 -0.004523980969 -0.070394079692 -0.058937438037 -0.11509379295 -0.43000738762 -0.16301040076 -0.010834956935 -0.16575230068 
-0.2408506138 -0.028239810226 0.20097204529 -0.4415166716 -0.22038686301 -0.13520462392 -0.055080175732 -0.098113613876 -0.59599639461 
-0.39533260776 0.32405894673 -0.10850685132 -0.14734917168 0.05438913609 -0.017459252573 -0.14953632399 0.0094131547222 -0.50467567227 
-0.25226825469 -0.044159701632 0.23972108072 -0.64753273711 -0.13581015688 -0.027757783969 -0.40231844168 -0.46998482346 0.050549429397 
0.079717608926 -0.21097319789 -0.5344322594 -0.73648511744 -0.19399234406 -0.1307239319 -0.88360120931 -0.57304628746 0.40504590501 
-0.31580530329 -0.37108542889 -0.44405825131 -0.16715919716 -0.19492343948 -0.16728232913 -0.33979517359 0.064769487341 -0.23968274414 
-0.02370485458 -0.27812973451 -0.10923240749 -0.16484136147 -0.18962667702 -0.18621183499 -0.7358685871 -0.16259158759 0.094104060934 
0.26507886631 0.024303087957 -0.89927180136 0.047384003222 -0.26146693129 -0.58732801454 -1.0434533669 -0.7755227954 0.33876669069 
-0.23623357529 -0.06635956063 -0.20566281147 -0.81683336084 -0.94505998728 -0.013819775431 -0.92621338027 -0.24317104435 -0.26563972934 
0.24121781771 -0.72104157084 -0.20179632348 -0.046053736731 0.17482035591 -0.31789394694 -0.30125671395 -0.10675922598 -0.11145613403 
0.10164270365 -0.92264218295 -0.38486908957 -0.5206798234 -0.087300104241 -0.085626012027 -0.080183056546 -0.075010733555 -0.62778079219 
-0.079971479046 -0.34669641884 -0.83912858459 -0.21198763401 -0.350012972 0.16506929487 -0.35932328156 -0.81225003798 0.1087941288 
-0.33865203162 -0.077543873579 -0.1107572209 -0.01195946227 0.017148572397 -0.0051002868852 -0.038919393517 0.03552528922 -0.041676890849 
-2.7759500177e-05 -0.056016637487 -0.010567847224 -0.047925880322 0.01867652287 0.018158006925 -0.014183446449 0.0073144557263 -0.0044042491481 
0.0052978317645 -0.0086661751156 -0.025440788974 -0.032761968753 0.0098175095414 -0.0038383855327 0.032548576262 0.0075344504275 -0.071228964553 
-0.074030612754 0.00014822685309 -0.0040407158751 -0.10632198737 -0.0089416312441 -0.031810324441 -0.024205942766 0.0064898681199 -0.0099155606999 
-0.10286691908 0.0046902177665 -0.031081176838 -0.01107360135 -0.038074297232 0.036512605691 -0.05619845027 -0.016813274868 0.012494910155 
-0.014932835476 -0.0021769795815 0.0052029589273 -0.033981771558 0.027091712639 -0.10386256674 -0.16032526049 0.012485672137 -0.11736493966 
-0.086702065524 -0.028795181407 -0.044124619414 -0.10135193392 -0.0014545445885 -0.0084470852065 -0.16604422355 0.03885786297 -0.039136616088 
-0.057469864061 -0.075662219788 0.011686356888 -0.19246875492 -0.019812291645 -0.16327888872 -0.17801821043 0.056343865308 -0.090323106544 
-0.17007257357 0.05366070593 0.0013057206932 -0.073752754982 0.014343012731 0.026097106166 -0.25022581725 0.072317684646 0.0018632748187 
-0.0087612606569 -0.00063822373493 0.0060623642875 -0.30891574231 -0.15381045765 0.022644564096 -0.28277317426 0.0443883696 -0.05353457573 
-0.15518706635 0.011841191626 -0.037427822531 -0.096533804897 0.028232169652 -0.029078658989 -0.44405511813 0.057886727213 0.058680154483 
-0.02369256665 -0.049112545141 -0.01204413028 -0.018534797767 -0.011010856073 0.0065968752438 -0.054139383882 0.0086196774052 0.0031370856935 
-0.061162350024 -0.047350652713 0.036450283489 -0.10643020742 -0.052512752809 -0.042711396344 -0.11632261331 0.10226211564 -0.12299084811 
-0.5402393645 -0.15336605231 0.06245768563 -0.077827361733 -0.16293813741 0.06872168771 -0.31595356738 -0.086514504312 0.14496095688 
-0.36907870496 -0.020493674938 -0.048379589289 0.053981220598 -0.092936417007 0.19905424187 -0.089252272303 0.089148445605 -0.050639852007 
-0.2433411882 0.049372158186 0.0059589880485 -0.11643892275 -0.48641860204 0.1235947908 -0.16141322838 0.0061735377125 -0.35503421717 
-0.16643520389 -0.042126185684 0.01209801833 -0.13398351864 -0.045821128724 -0.073715852404 -0.32951017671 0.028074819516 -0.083914905983 
0.059103838455 -0.19665041125 -0.17297326925 -0.11762031177 -0.098742238971 -0.048296736242 -0.50648726692 0.015630829209 0.091618257986 
-0.10695208529 0.10392402494 0.076445539759 -0.64654674659 -0.14990669998 -0.29884652193 -0.19385169774 -0.00065870652569 -0.34653671926 
-0.49752888095 -0.11632369688 -0.018511903083 -0.15139364595 -0.079929371276 -0.39496500283 -0.27463564088 0.050880493743 0.057020731558 
-0.2050742785 -0.098556261014 -0.1841546876 -0.2466254772 -0.14284597268 0.022183074729 -0.065149823947 -0.014274079108 -0.0010517718477 
-0.051709894845 0.078106373927 -0.3824423236 -0.15236006497 -0.05612439726 -0.10862341824 -0.778241733 -0.28101803181 0.22802754413 
-0.30173995648 -0.16525685197 -0.15793912569 0.33431462403 -0.52438218504 -0.35784106857 -1.269163636 -0.67337526494 -0.027485089506 
-0.30105264768 -0.21444123114 -0.21739785656 -0.0028585644967 -0.0047787677563 0.077052351648 -0.57455737448 -0.0109023532 -0.071566944454 
0.23220330801 -0.74941903885 -0.061807805975 0.18598274679 0.040212392422 -0.22399588552 -0.079751251219 0.04167250908 -0.21613934736 
0.0085983434652 -0.27648208945 -0.47945574513 -0.065494959693 -0.042437596517 -0.17305212516 -0.87027815779 -0.65243461349 -0.22748993444 
0.34881353993 0.092131544822 0.38195631978 -0.46296600141 -0.014767972396 -0.12566809375 0.051543560872 -0.60371335776 -0.073608804402 
-0.15553275433 -0.53425783949 0.53407185818 0.70320784874 -0.57231660998 -0.54490631357 -0.11205830113 -0.14335245182 -0.28681895796 
0.22943593491 -0.43514925489 -0.55091120298 -0.22061648711 -0.11032485955 -0.37657098198 0.49508697001 -0.65090834907 -0.36043553182 
0.0030231873579 -0.27158489838 -0.13085580374 -0.0037801499233 -7.8171370614e-05 -0.0033290204042 -0.028957205703 -0.01499505832 0.011105305327 
-0.020198027523 -0.00021102861707 -0.0070740388565 6.4061530396e-05 0.002593983506 0.0043238101209 -0.0036020975068 0.0012361647855 0.0020961008248 
-0.0075983541309 -0.00013805242835 -0.010593508017 -0.0011718434321 0.0068319896602 0.0001405962908 -0.088637888332 0.027601206725 -0.010307891323 
-0.1317658085 0.03525864202 -0.067663881773 0.014681419361 -0.0088096114621 0.0026919665952 -0.08021509363 0.0044453753839 0.081312323241 
-0.022738749664 -0.0043030105261 0.028142103544 -0.019458044214 0.0025486898545 -0.0030124529818 -0.027978948024 0.030754235241 -0.032327698274 
-0.092110190993 0.072372031597 -0.04480595772 0.0056809273755 -0.0039181707085 0.00012495366074 -0.10846446521 -0.0054037693875 -0.028150175829 
-0.019102611873 0.0033494542685 0.014256591824 0.0033722823149 0.0081733861041 -0.014799971238 0.0016106802644 -0.0079108110677 -0.028146038903 
-0.00227950343 -0.012107005228 0.073236746229 -0.17022309886 0.036850930457 0.013257016047 -0.070059104879 0.00729367718 -0.052620192705 
-0.055845936046 0.027886185981 -0.092378178742 -0.18708388804 0.0063367651006 0.01309112525 -0.0065900415453 -0.0095757758444 -0.0037806342421 
-0.028491368609 0.013089290191 -0.00020950858828 0.011196467956 -0.0072814739055 -0.021161490625 -0.039653689516 0.0042830570799 0.0030317635875 
-0.029963027567 0.0077996776899 -0.0046966100027 -0.10776563121 0.029754150405 -0.0073577750855 -0.3885714711 0.038033323048 -0.048756921547 
-0.045341497531 -0.008833658677 -0.00028908880289 -0.1407638757 0.030965263728 -0.014630656305 -0.045701442982 0.014593049813 -0.00031595895061 
-0.061212377044 0.0039098192416 -0.028578073212 -0.024332400611 0.014213446473 -0.074414564906 -0.0362077906 0.0069345152756 -0.011056377641 
-0.015240343233 0.00032460926955 0.017996529831 -0.11834890532 -0.17749160621 -0.61183821558 -0.093424014784 0.069547489512 -0.10760277248 
-0.025958125708 0.051036293625 -0.11406523205 0.1201833416 -0.11128903489 0.004551484203 -0.49479378578 -0.23263718743 -0.039617837309 
0.045342913139 -0.067653042275 -0.0034290260933 -0.34861692027 0.031967681308 -0.19705503796 -0.091922968901 0.010808065966 0.073399634278 
-0.059103819629 -0.018699443997 -0.0047154670908 -0.23257189993 0.015810954425 -0.044866770242 -0.2566806868 0.04285607028 -0.036393661597 
-0.032214669437 -0.10997587536 -0.078779534758 -0.3209367361 0.069618180304 -0.21718884181 0.20888928907 -0.039898969047 -0.033758467309 
-0.33387262024 -0.16060417794 0.20145808602 -0.087198238844 -0.57478463848 0.25616903783 -0.56484048789 -0.076717841342 -0.16824333304 
-0.1803838951 -0.069222390706 0.0096247763887 -0.12329881007 -0.16053310745 -0.21824697544 -0.13090333164 -0.62154583198 0.13016853916 
-0.27582173534 0.070544671001 0.045187704471 -0.11211331803 0.042547931948 -0.063335612889 -0.19937558628 -0.054824678018 -0.11430144529 
0.3611581739 -0.15042123356 -0.034126657057 0.50011000972 -0.3085800704 -0.081014972395 -0.12775313619 -0.21017821908 -0.091069624125 
-0.098102418007 0.052617741081 -0.12782173859 0.37618311261 -0.14893584052 -0.077050165469 -0.066209075534 -0.35624226885 0.39544289589 
-0.24383732904 -0.16248003055 -0.11847530095 -0.28642924983 -0.098394597049 -0.46353395749 -0.23898938575 -0.11857050469 -0.086874350869 
-0.16893650709 -0.49836698827 -0.060848223264 0.24683196274 0.010403975068 -0.11545156185 -0.12636156953 -0.086355822727 -0.12140269962 
0.062822248857 -0.79258230104 -0.50087895469 0.049178777403 -0.096675882935 0.051198652022 -0.16781771411 -0.28533538349 -0.24612566322 
0.29288998793 -0.66788863822 -0.12594330427 -0.017950417453 -0.0007727524124 0.0035054725565 0.020214937735 0.014732181783 -0.0066371191293 
0.00077264351106 -0.0002580006602 -0.023279568481 -0.068801516748 -0.021041163325 0.00010141958683 -0.0004078441232 -0.00016217326234 0.0010631182009 
-0.046003103379 0.046802590387 -0.02397931856 -0.017990195494 0.014450637403 0.0027305979109 -0.0013097580266 0.0065405375121 0.0060094958247 
5.2079300841e-05 -0.0052177489305 -0.079694864301 -0.017846932065 0.0010663907257 0.0010795789354 -0.00076799384825 0.00018475121373 0.0037667278362 
-0.0012709886197 -0.0041825718294 9.4289583133e-05 0.0023633132601 0.0083417548016 -0.0073328288137 -0.022445276132 0.0080149565617 0.015707721819 
-0.058660093246 0.02434332463 0.0075863925725 -0.042924977485 -1.3261892571e-05 0.064847584469 -0.0057103309104 0.0039235403877 0.041642243246 
-0.064899744876 0.017875355162 0.041594186088 0.080633768526 -0.067405661169 0.015715234033 -0.011101655644 -0.000382118256 0.0074782557308 
-0.010216703536 -0.0013309275431 -0.0077130369454 -0.037056063212 0.016994994138 0.010565161048 -0.062851806685 0.037193203223 -0.020948919211 
-0.036098216623 0.050298981078 -0.049524105002 -0.025141972386 0.00069356273904 0.0096187435465 -0.019885429151 0.00070540132947 0.0050425769443 
-0.073748348588 0.0041606663995 0.0022931490874 -0.026631945458 -0.0050165754406 -0.003640495079 -0.0091120075434 0.0031060022631 -0.0045363773817 
-0.036075797954 0.0027529267494 0.015136716698 -0.058276660446 0.00074602962466 -0.045045858514 -0.023133615653 -0.0026212786785 0.0013404447117 
-0.077227363382 -0.0074598513219 -0.047485997899 -0.047775886715 0.044020466737 -0.034048592959 -0.025100002395 0.00011493791097 0.010288326441 
-0.070043270907 0.028421919971 -0.042472943238 -0.11283610755 -0.038839975947 0.018097205001 -0.19768192402 0.002684528589 0.14239901262 
-0.069102124148 -0.030491106763 -0.044977677006 -0.066092957527 -0.029646576191 -0.050238683032 -0.015506872631 -0.0070258880297 -0.045435119599 
-0.033528287471 -0.019637187432 -0.037415725893 -0.10166597707 0.043868637521 -0.041671468515 0.062182876841 -0.10212460575 -0.18869345315 
-0.037518937585 -0.076061025227 0.023085734272 -0.046444610862 0.0195125717 -0.060311516887 -0.066701379698 -0.10840867855 0.071561988838 
-0.085328443483 -0.050051570212 -0.085184246878 -0.1454907383 0.037089735458 -0.043286034919 0.12673587761 -0.027152244057 0.081560313631 
-0.039355606213 -0.034066626559 -0.068418483269 -0.10870649403 -0.019547113633 0.031983112183 -0.1175810934 -2.4106606814e-08 -0.1949204867 
-0.13184975905 0.045675833095 -0.062460946461 -0.093878436791 -0.036065238932 0.0032819910275 -0.11195871277 -0.0064420119033 -0.030915065394 
-0.25321800109 -0.045509932732 0.0097450920658 0.13803721291 -0.050422715821 0.091723202596 -0.16076660418 -0.018726440264 -0.052231138395 
0.13704186207 0.07268032584 -0.22551122708 -0.1624207933 -0.14629494451 -0.12946547948 -0.081355503483 -0.18638740332 -0.11877364189 
-0.1657642334 -0.09905110609 -0.0026760343849 -0.28718555814 -0.036950320118 -0.13656437732 0.037159108359 -0.010195573049 -0.046519321896 
0.13249525454 -0.35255414845 -0.09330245418 -0.36941711389 -0.0097523547519 -0.085235003508 -0.0032812750278 -0.0010067313307 0.023755974281 
-0.12169092355 0.1538011991 -0.074241094922 -0.025870146691 0.026941845619 -0.0050129232322 0.14436875208 0.025907850339 0.023602846276 
-0.024210109765 -0.017397964701 -0.11460948054 -0.082666295587 0.011106381426 -0.062889641488 -0.090757123226 0.01304876275 -0.043282237036 
-0.13731044366 0.037238474926 -0.039195065166 0.20169651084 -0.10638777282 0.012973997692 -0.091706737025 0.020720372504 0.0070723021435 
0.32163722892 -0.2182964875 0.55936963743 0.098746172105 -0.14383391742 -0.24494217422 0.030307872784 0.038620758937 -0.058054877624 
0.064210163771 -0.15617336204 -0.019675949753 0.046550534885 -0.090628226708 -0.0021992386804 -0.028660844028 -0.055030923621 0.12238336802 
0.0027463465819 0.039377323869 -0.030891011515 -0.00093008926426 0.00011488811244 -0.055139726061 -0.00013562098314 3.9135352643e-06 -0.0063789406234 
-0.0029372588017 0.00012797814537 0.002786032421 -0.0032514990291 0.0018439652918 4.7515861166e-05 -0.0017800187353 5.257203009e-05 0.0017976647999 
0.0073191656241 3.7898395171e-06 -0.0040798762812 -0.0050237766225 0.013757796841 0.00037741501465 -0.02298904009 -0.0021216879134 -0.00017004807411 
0.00022971436625 3.8679366309e-05 -0.0092661042506 -0.0059350623565 -1.5758525004e-05 -0.0006243188817 -0.0062778406931 0.0011623178226 0.0013100231116 
0.0063085067282 -2.1517110424e-05 0.021580432337 -0.0015383708444 -1.5865279445e-05 0.013252367 -0.0040936142914 -4.3776742079e-06 -0.0085100186796 
-0.096328578127 0.0048537944597 0.031953812996 0.0067267028838 0.00040291715997 -0.0010067499791 -0.0032433263077 -5.6176482093e-05 -0.0017684025032 
-0.034387450803 -0.00021130120084 -0.0062496155942 -0.030182135035 0.0029324320605 -0.0049134566027 -0.0066325760767 -0.00017938068502 -0.010430894821 
-0.038366832657 0.023585694294 0.052015811034 -0.0012252873381 -0.00056796473282 -0.00011237444356 -0.00071899711837 0.0065211083169 0.012263219228 
-0.013951145171 7.861997237e-05 0.00091508892391 -0.019937134062 -0.00091430341757 -0.0129312391 0.00049326182613 -0.0075211687606 0.0039692017492 
-0.043188725572 -0.00060422723102 -0.010985183841 -0.024370558633 0.0041295182485 -0.019224083258 -0.04871623334 -0.014841704654 0.02815039286 
-0.012034646317 -0.026808792667 0.014566185229 -0.017612929156 0.00037704708885 0.00087689619883 -0.0085728829619 0.0050468530106 -0.0073047787045 
-0.03588216753 0.010504537584 0.012268257536 -0.077535031104 0.0094672280813 0.021386794082 -0.067130748742 0.030386318523 -0.00039155675681 
-0.1011759706 0.017654516252 -0.032028360098 0.0037948149943 -0.012256492117 -0.030641418574 -0.032339110985 0.0005412609473 -0.008828425544 
-0.02728213631 0.003878259176 -0.0025897471023 0.011720258733 -0.011644324652 -0.048939361285 -0.022456416037 -0.012329159764 0.022599723305 
-0.093568981666 0.024373939578 -0.033915130472 -0.036312940995 0.0036928292086 0.041890253306 -0.096514457974 -0.0045471787927 -0.035929789062 
-0.1509079381 -0.0092605020682 0.039518555474 -0.013021243565 0.0019129525633 0.0079938430187 -0.0077015128261 -0.0018279275932 0.016226492974 
-0.0063832126453 0.0017712582249 -0.079750042055 -0.056001646052 0.0035637773367 -0.017760144214 -0.021254022568 -0.00057859739692 -0.0035611999943 
-0.041444154394 -0.024159479932 -0.02675687461 -0.003160287764 0.024063648511 -0.089525425119 -0.1992780885 -0.0049937482245 -0.01972046937 
-0.0927085671 0.014792851102 -0.034661645366 -0.096113321647 0.060154889801 -0.03062523265 -0.087480656744 -0.027709083489 -0.040953071802 
-0.089888033196 -0.097772077695 0.014516054812 0.0040208602332 -0.011561681713 0.032951522963 -0.029338126075 0.012977518613 -0.039044516348 
0.012526934976 0.00025345131423 0.018049743345 -0.041256812625 0.023188329335 -0.041873992951 -0.15218803339 -0.016978575749 0.078253501181 
-0.22087057322 0.021699335707 0.0025269911721 -0.17676059737 -0.067409418968 -0.19943286612 -0.096007051666 -0.048693967165 -0.028791736137 
-0.17366617749 0.025362352432 0.055952940743 -0.082457649283 -0.0013048625975 -0.045713048385 -0.11230886594 0.0087061387276 -0.035519541303 
-0.049666138877 0.0099028016772 0.05693709068 -0.044893795865 -0.028555485544 -0.038784807165 -0.076558936201 -2.3710347133e-12 -0.2789706672 
-0.36916624348 -0.024260193327 -0.20040104843 -0.057323838113 -0.65332140668 -1.082666456 0.17530098573 -0.00066615188375 -0.10320632355 
0.1413598967 -0.05666243312 0.086969257261 -0.33806836424 -0.25821486609 -0.36415616903 -0.15031250263 0.014985593611 -0.04214890395 
-0.0034937967375 0.0042690079791 0.051837205113 0.030568673004 -2.7874880936e-07 0.011468614676 -0.11654304272 0.0895910229 -0.12561352601 
-0.1518293661 0.013311096366 -0.01904429568 -0.062332940371 -0.034007953004 0.0083775854637 -0.043773947423 -0.11855551097 0.00022771118789 
-0.25875186571 -0.16565147596 0.068200080335 0.078997800514 -0.19234820431 0.16765106106 -0.19364934207 -0.095254096737 -0.069496111495 
-0.4591067857 -0.00021042688784 -0.062695779372 -7.260472559e-05 -0.00018490391128 0.0020082091787 -0.1157913099 0.064842864776 0.10169195367 
0.0013157953033 0.00047217950566 -0.024286377358 0.013759176221 -0.00035728285984 0.0040632517456 -0.021805757278 -0.0025643075627 -0.00039299349576 
1.2433419667e-05 -0.035914628957 0.059625207522 -0.012332188063 -4.5510561598e-12 -0.0039856425339 -0.0019596342733 -0.00010825335156 0.0012759802699 
8.1817780612e-05 1.1478873945e-05 0.0018526108965 -0.0082727607205 0.0046669918342 -0.0001876906433 0.0033552458514 2.5840221762e-05 -0.011829897954 
-0.02592903347 6.1267472745e-05 -0.0040316567604 -4.796055589e-06 -6.6869055249e-05 0.00068660930155 -0.0025376215055 -7.2916733059e-05 0.00010778442164 
-0.016529997227 7.4194844009e-05 -0.015180120627 -0.003536923077 0.00015285366124 0.0036542762726 -0.002353180733 -4.8268159083e-05 0.0010386482736 
0.00095008092698 -3.0480652381e-14 -0.00057830819308 -0.044196867203 0.0073843707802 -0.00015816481542 -0.015100102224 -0.00013279518855 0.012578767609 
-0.00023809537768 -0.0089687484117 -0.042607396669 -0.016235924613 -0.00054537105948 0.012544445544 -0.003142345605 -0.0017563222562 0.0042724752337 
-0.009347213139 -3.731588684e-05 -0.0084173911657 -0.02163174981 -0.00044612351469 0.011072963599 -0.0027640341455 -3.4021235167e-05 0.00015330489247 
0.048326940392 0.025375504105 0.16037198125 -0.01695079725 -0.00558831542 -0.01936396158 -0.058115453654 -0.013988888838 -0.016820558149 
-0.013097560052 0.00063389127468 0.016478856111 -0.020547196549 -0.0026987133627 -0.039831056217 -0.0023206072811 -7.8283743392e-05 6.5401809175e-06 
-0.053911929357 0.003877518774 -0.014428032619 -0.0090307497484 0.00026332551364 0.0011751848998 -0.013140216261 0.0010286017227 -0.013338079261 