# vtk DataFile Version 4.1
vtk output
ASCII
DATASET UNSTRUCTURED_GRID
POINTS 1274 float
0.273724 -1.29442 -0.0531824 0.273988 -1.30223 0.0958383 0.279906 -1.29498 0.316539 
0.15786 -1.31629 -0.210674 0.298439 -1.29134 0.178025 0.411692 -1.23463 -0.0671504 
0.38173 -1.29106 0.322051 0.470522 -1.23552 0.49325 0.512269 -1.24374 -0.0077045 
0.637124 -1.25316 -0.00549979 0.539033 -1.34676 0.187636 0.641652 -1.2225 0.434173 
0.852485 -1.27238 -0.151259 0.84358 -1.25445 -0.0829239 0.657748 -1.29601 0.158118 
0.755489 -1.27579 0.265927 0.696136 -1.27005 0.218896 0.794278 -1.20772 -0.0446829 
0.637103 -1.20694 -0.055612 0.67242 -1.34643 0.00774982 0.7151 -1.19046 -0.0822069 
0.690765 -1.30811 0.278285 0.407223 -1.22936 0.300815 0.615416 -1.27202 0.224694 
0.912935 -1.23656 -0.0767981 0.328039 -1.23779 0.157868 0.657608 -1.20769 0.363501 
0.814343 -1.19484 -0.113029 0.921385 -1.31389 -0.00042999 0.823443 -1.2292 0.0380163 
0.97193 -1.2085 -0.0152899 0.656917 -1.22814 0.0469486 0.557863 -1.21874 0.378398 
1.0823 -1.22263 -0.287789 1.03343 -1.24153 -0.141581 0.503933 -1.22115 0.280647 
0.790059 -1.27863 -0.0124662 0.635011 -1.27366 0.285576 0.405273 -1.25058 0.137865 
0.956721 -1.20132 0.0584187 0.85155 -1.2263 -0.208575 0.798247 -1.23313 0.160112 
0.838383 -1.21208 0.108889 0.748287 -1.22066 0.216402 0.903596 -1.24341 -0.00569202 
0.983093 -1.2375 -0.236813 0.891843 -1.25223 0.291452 0.887216 -1.2179 0.230012 
0.452495 -1.29919 -0.306606 0.167876 -1.3325 0.28079 0.145218 -1.35877 -0.0654574 
0.0370368 -1.33439 0.173543 0.286564 -1.34239 0.471714 0.255928 -1.33819 0.384951 
0.239811 -1.31307 0.164456 0.379767 -1.35335 0.285172 0.151131 -1.34827 -0.274858 
0.35942 -1.41001 0.0556214 0.612 -1.2894 -0.213212 0.217832 -1.35344 -0.222272 
0.399626 -1.34728 -0.151444 0.371751 -1.35509 0.404545 0.39958 -1.293 0.394625 
0.278227 -1.3483 0.208881 0.213543 -1.33804 0.00533052 0.485265 -1.26601 -0.187187 
0.41351 -1.36083 -0.0237593 0.583522 -1.34513 0.299809 0.433366 -1.2827 -0.142599 
0.304296 -1.2841 0.242985 0.552729 -1.3603 -0.0196518 0.376904 -1.27369 0.194478 
0.331432 -1.29835 0.0617852 0.330715 -1.26203 0.445529 0.508657 -1.2274 -0.0831606 
0.623841 -1.4128 0.100123 0.537212 -1.25011 -0.239226 0.214065 -1.2809 -0.178727 
0.568802 -1.35608 0.0412473 0.541217 -1.30137 -0.0341279 0.328536 -1.26195 0.297427 
0.451665 -1.28832 0.450389 0.579877 -1.33502 0.469898 0.446616 -1.28086 0.264183 
0.511146 -1.29928 0.291156 0.452048 -1.36107 0.112174 0.615293 -1.30345 -0.0474069 
0.643615 -1.22714 -0.214078 0.972589 -1.28503 -0.284714 0.570369 -1.28611 0.17231 
0.475554 -1.28645 -0.2505 0.764676 -1.28926 0.34389 0.64566 -1.32727 0.220604 
0.577174 -1.23822 -0.0535285 0.999485 -1.26679 -0.0445819 0.741807 -1.25416 -0.0605986 
0.684779 -1.29051 0.0494989 0.876334 -1.34913 0.161828 0.603162 -1.25481 0.0800294 
0.780388 -1.23225 0.388024 0.791282 -1.24177 0.464692 0.545543 -1.26307 0.232979 
0.826136 -1.35947 0.207837 0.621979 -1.22483 -0.144521 0.687902 -1.2322 -0.0329416 
0.5531 -1.24045 0.123889 0.732434 -1.23679 0.0213869 0.808468 -1.30046 0.178072 
0.82898 -1.25005 0.340571 0.68123 -1.26708 0.329883 0.809303 -1.22653 0.532537 
0.912231 -1.2468 -0.369619 0.769711 -1.30958 0.0489484 0.437878 -1.25594 0.192575 
0.721046 -1.22564 0.535002 1.16348 -1.22106 0.0119694 0.628544 -1.26611 0.530777 
0.734243 -1.2257 0.317732 0.705214 -1.24496 0.41522 0.579071 -1.24315 0.0156471 
0.958547 -1.29237 0.219561 1.10564 -1.23872 -0.166941 0.839096 -1.30525 0.0442063 
0.977059 -1.22586 -0.0923599 0.908453 -1.28982 0.0616795 0.61622 -1.23652 0.14763 
1.32363 -1.19528 0.526799 0.738743 -1.2561 0.161402 0.940593 -1.22514 0.193449 
0.952692 -1.20815 0.423002 1.21182 -1.26331 -0.182592 0.90522 -1.23218 0.0978252 
1.04526 -1.22572 -0.00796738 0.863813 -1.23337 0.171968 1.10083 -1.25812 -0.0319349 
0.963431 -1.26272 0.031755 0.0867155 -1.41341 -0.246561 0.285904 -1.36074 -0.213012 
0.430052 -1.40919 -0.397639 0.0351686 -1.3596 0.315263 0.213248 -1.32109 0.482533 
0.096706 -1.40799 0.156731 0.216619 -1.34415 -0.402017 0.500731 -1.3186 -0.348204 
0.0870969 -1.35984 -0.381469 0.493795 -1.34764 0.459836 0.251052 -1.27895 0.529061 
0.147065 -1.35434 0.379375 0.241119 -1.41179 0.297691 0.0967072 -1.35817 -0.01249 
0.276991 -1.31995 -0.156647 0.0801085 -1.35883 -0.288932 0.47252 -1.35386 0.309891 
0.348677 -1.40768 -0.0292922 0.12964 -1.34351 0.230592 0.213331 -1.33454 0.0981961 
0.2197 -1.29564 0.291394 0.321015 -1.29138 -0.295059 0.270967 -1.34801 0.0403841 
0.422594 -1.31835 0.166217 0.0827125 -1.2926 0.215284 0.515558 -1.30033 0.419389 
0.893356 -1.30015 0.533049 0.546803 -1.35546 0.420434 0.240935 -1.29487 0.22864 
0.318256 -1.35521 0.156945 0.318862 -1.35428 0.0925846 0.367438 -1.28835 -0.232359 
0.520214 -1.33275 -0.241294 0.49279 -1.2928 0.203946 0.551938 -1.2249 0.523345 
0.644698 -1.28742 0.408269 0.7771 -1.34093 0.461709 0.423952 -1.34431 0.229038 
0.676998 -1.41468 0.136483 0.59497 -1.22168 -0.399396 0.601306 -1.35847 0.18848 
0.853891 -1.22679 -0.316499 0.391422 -1.29511 -0.298391 0.828522 -1.29957 0.283808 
0.759248 -1.28959 0.41984 0.332901 -1.28445 -0.172144 0.57144 -1.27624 0.28883 
0.67016 -1.27212 -0.166598 0.490077 -1.2495 0.145383 0.879334 -1.29194 0.214146 
0.970482 -1.38761 0.0885663 0.535711 -1.28034 0.0564232 0.994686 -1.25482 0.444075 
0.648799 -1.33023 0.34103 0.941758 -1.29602 -0.0633336 0.675559 -1.20722 -0.270061 
0.725932 -1.22887 -0.145013 0.791354 -1.30411 -0.0806018 0.820784 -1.34978 -0.0452149 
0.739833 -1.31794 0.178593 0.703172 -1.35478 0.138696 0.859784 -1.29913 -0.0262923 
1.00875 -1.24924 0.086815 1.06205 -1.27474 0.0387249 0.912457 -1.25087 -0.140506 
0.786892 -1.28868 0.115072 1.10912 -1.28388 0.3951 1.00428 -1.24673 0.188784 
0.818532 -1.24321 0.228998 0.699041 -1.25849 0.111001 0.931819 -1.36122 0.216839 
0.857249 -1.28511 0.119003 1.19593 -1.36083 0.117082 0.94734 -1.35395 0.143522 
1.12382 -1.25879 -0.097778 1.02655 -1.26067 0.275256 0.763453 -1.22421 0.0951317 
0.993247 -1.3535 0.19672 0.297598 -1.4153 -0.358811 0.199557 -1.3722 -0.327206 
0.0322037 -1.4135 -0.0344886 0.44145 -1.28068 0.531353 0.0339858 -1.41171 0.191262 
0.0879675 -1.32414 -0.106976 0.340246 -1.30684 -0.394424 0.0369048 -1.36219 0.0211484 
0.0352933 -1.34447 0.485833 0.34659 -1.40639 0.198478 0.151901 -1.41314 0.444433 
0.324038 -1.34688 0.532516 0.0881826 -1.39525 0.227211 0.326699 -1.35879 -0.26531 
0.218199 -1.3506 -0.129236 0.248993 -1.41429 -0.202557 0.125112 -1.33767 0.152905 
0.312007 -1.29145 0.502101 0.0915574 -1.33743 -0.219707 1.00567 -1.41418 0.472927 
0.234258 -1.40735 0.202627 0.218186 -1.34143 -0.0604538 0.403498 -1.35848 -0.282326 
0.151034 -1.32345 -0.00110038 0.582383 -1.41374 0.215196 0.46915 -1.4131 0.144575 
0.452725 -1.28902 0.340977 0.274145 -1.35686 0.322707 0.194571 -1.36249 0.157677 
0.311749 -1.34571 0.270337 0.802241 -1.4127 -0.226647 0.190348 -1.38796 0.264677 
0.356525 -1.34232 -0.0620696 0.16165 -1.30569 -0.120867 0.394458 -1.41526 -0.141588 
0.293157 -1.35419 -0.0873887 0.465681 -1.33974 0.396151 0.479391 -1.25483 0.394872 
0.297982 -1.35987 -0.022186 0.358781 -1.34947 0.0162012 0.800659 -1.29731 -0.212069 
0.379078 -1.36167 0.155161 0.336268 -1.3453 -0.17952 0.3528 -1.29992 0.132045 
0.377732 -1.29362 0.256121 0.347589 -1.33267 0.211551 0.526305 -1.2356 0.436539 
0.447873 -1.29508 0.10897 0.734726 -1.25885 -0.210352 1.05809 -1.36695 -0.147737 
0.310569 -1.30423 0.00391317 0.444178 -1.30493 -0.0197406 0.836103 -1.41477 -0.140639 
0.613524 -1.36219 -0.0112805 0.650136 -1.3631 0.275077 0.501815 -1.35063 0.244406 
0.518591 -1.26034 0.345253 1.14793 -1.36802 0.380354 0.628365 -1.36838 -0.0736391 
1.1204 -1.2836 -0.219131 0.725209 -1.29639 -0.115864 0.853964 -1.32453 -0.107883 
0.687045 -1.36358 -0.05152 0.746714 -1.34148 -0.00647076 0.897971 -1.3546 -0.0556302 
1.04978 -1.23584 0.467592 0.636006 -1.3149 0.0924862 0.84133 -1.41501 0.254276 
0.652722 -1.25735 -0.0940761 0.895609 -1.35377 0.0896218 1.09832 -1.31878 -0.000738539 
1.01076 -1.31095 0.00851462 0.813249 -1.37055 0.046588 0.753675 -1.33949 0.101757 
0.695971 -1.29782 -0.0345909 1.05064 -1.34985 0.155102 0.854863 -1.41217 0.0910718 
1.18065 -1.23066 0.41075 0.994465 -1.28982 -0.106385 1.09779 -1.40835 0.173126 
0.963409 -1.37552 -0.0367967 0.971622 -1.31639 0.0849888 0.86836 -1.20725 0.464003 
0.0341699 -1.37745 -0.227515 0.0314948 -1.41421 -0.173162 0.0354917 -1.41021 0.46791 
0.0724853 -1.41424 0.307491 0.0840229 -1.37156 0.528368 0.0999147 -1.41553 0.479461 
0.0769279 -1.41064 -0.339105 0.166935 -1.39485 -0.39495 0.384415 -1.36054 -0.403686 
0.0336249 -1.41208 -0.285803 0.0514877 -1.41294 0.066588 0.264992 -1.4091 0.470976 
0.0356082 -1.41055 0.363716 0.240042 -1.4087 0.37034 0.142937 -1.41182 0.528729 
0.301811 -1.35419 -0.332155 0.142864 -1.41429 -0.331476 0.145818 -1.41471 -0.269142 
0.640531 -1.41014 -0.320292 0.424292 -1.41293 -0.237084 0.115999 -1.41367 0.0606676 
0.0974698 -1.34397 0.422128 0.392184 -1.33181 0.529311 0.109641 -1.35191 0.315408 
0.501013 -1.4062 0.400845 0.175092 -1.37134 0.0535929 0.310231 -1.40789 -0.168348 
0.292567 -1.41419 0.0897192 0.209901 -1.40913 -0.0931014 0.35545 -1.34881 0.469473 
0.316805 -1.32235 0.415528 0.291623 -1.40986 0.249614 0.713798 -1.35036 0.518539 
0.207395 -1.35185 0.331863 0.41135 -1.35003 0.349645 0.45357 -1.34853 -0.224248 
0.383473 -1.35576 -0.218998 0.0655632 -1.35877 0.109109 0.455395 -1.40706 -0.173077 
0.243399 -1.35268 0.267283 0.263781 -1.35817 0.128543 0.420784 -1.35371 0.450477 
0.336687 -1.32085 -0.122254 0.457421 -1.41043 0.049782 0.629385 -1.2802 -0.371975 
0.523883 -1.29209 -0.290501 0.569951 -1.41475 0.0648931 0.519341 -1.28587 0.489304 
0.648229 -1.41098 0.225328 0.550581 -1.35148 -0.296353 0.456655 -1.41397 0.209198 
0.680684 -1.36145 0.394713 1.07285 -1.29117 -0.270012 0.463168 -1.28398 -0.0797441 
0.428164 -1.34147 -0.0862019 0.50196 -1.32643 0.0149907 0.438346 -1.34184 0.037847 
0.529594 -1.33084 0.355537 0.570984 -1.28935 0.535691 0.942805 -1.25456 0.531367 
[...]
POINT_DATA 1274
FIELD FieldData 10
VELOCITY 3 1274 double
2.9748616004e-05 -5.7110857e-05 -0.00011335929974 0.00011308777651 -2.108139004e-05 8.6156573208e-05 -2.8135846514e-05 -0.00010538821892 1.6833418444e-06 
-1.5743934428e-05 6.0273426259e-05 3.3243445739e-05 -0.00014292650264 -0.00013708428222 -0.00024796826603 0.00023759239844 -6.4542958352e-05 8.0609941007e-05 
-0.00022083086715 -4.5709301533e-05 -2.9123791966e-05 -0.00056538461471 9.819260019e-05 -0.00022332411053 -0.00024322112671 0.00019055113042 -0.0012253634358 
-0.00035531313634 -0.00065910756097 -4.7815971596e-05 -0.00019519757561 2.9057511479e-05 -4.6187378941e-05 2.0546544597e-05 -0.00029857641191 0.0011239032836 
-0.00051183335588 -0.0011753602299 0.00062095056168 0.00054362588066 -0.00038284024243 -0.00063069711868 0.0010029206863 -0.0014305984288 -0.00051362959062 
-0.00010929772283 -8.1213427381e-05 0.00057957648935 0.00062494575967 -0.0011661899061 -0.00045237555407 -0.001051095391 -0.00099679619653 -0.0019035688866 
0.00077195032354 -0.0035332154451 -0.0025694791407 0.00020453864302 3.7483302763e-05 1.8536626621e-05 -0.00054744048694 -0.0017614346626 -0.00019527319657 
-0.0001860375214 -0.00017933372942 -6.3969396127e-05 -0.038611887383 0.00099183466826 -0.043127445268 -0.00016858309114 -0.00017858518662 8.9974246463e-06 
0.00036958049044 0.00018442050233 0.00056185888589 -0.0038399663808 -0.012709292244 -0.039130153918 0.00031479258014 -0.0007120806764 0.0010985444232 
0.0010826150152 -0.00036152655521 -0.0011652404489 -0.00025594579784 -2.3339271493e-05 0.00013688008204 -0.00012565281401 -0.00042051651026 -0.00028755904782 
-0.00048792080818 -0.00011387248199 4.3842832591e-05 -0.0001508936234 0.00016497089698 -0.00055199693362 -0.00024158168266 -0.00034813236064 0.00025078831743 
-9.1654843785e-05 -0.00043841134292 -0.00038684289806 0.00059756754538 -6.2169921086e-05 -0.00016119769558 0.00015858410718 -0.00032720722011 -0.00016493413468 
-0.00048778638858 -0.00026820573017 -0.00030860532496 -0.00011748966914 -4.622047876e-05 0.00015346765623 3.1567754926e-05 -0.00019787073879 5.8182765987e-05 
0.0075366613013 0.00046581204677 3.9769314414e-05 -0.00034487240075 -0.00096948605639 -0.00058906928582 -0.00046415073624 -7.2390692612e-05 0.00024647431894 
-0.00094080702666 -0.00016192481219 -0.00019736181947 -0.00035244089717 -0.0014168061149 -0.00085259566633 -0.00037830465426 -0.0002279017477 0.00034204511042 
0.0011408715834 -0.0003145775489 0.00037731849578 -3.3476226977e-05 -0.00015205012701 -1.498343532e-05 -0.0010897107209 -1.2519282502e-05 0.00023882358291 
-0.00077461591565 -0.00035537163929 -0.00031015167353 -4.9342284879e-05 -3.6629385135e-05 -2.0719595786e-07 7.6677159641e-05 -7.2965998668e-05 1.0617229839e-05 
1.450748827e-06 -0.0003031860604 0.00010837005046 -0.00017269354162 -2.4008162517e-05 -0.00012774538634 9.9205724992e-06 -7.9697062904e-05 -1.4649063796e-05 
7.2908932688e-05 -1.6980657922e-05 -0.0014029174291 -0.00016037533771 -9.9765292774e-05 -9.1836036411e-05 0.00032554358414 -9.9748966691e-06 0.00029038078973 
9.4588773643e-05 3.8296424832e-06 4.9033354277e-05 -0.00030366485284 0.00016010032661 -0.00037249814695 -2.8645022943e-06 9.5832592701e-06 0.00020571353746 
3.8610718922e-06 -2.0304533197e-05 8.5216824824e-05 -0.00018186679976 -0.00012685196334 6.6537757601e-05 -0.00037078541141 -5.49018939e-05 -6.2907598024e-05 
-8.0062057789e-05 -2.1480053278e-05 2.841824057e-05 -0.0001273051656 -0.00030221437853 0.00017275507797 -0.00024922388785 -0.00023772048439 -0.00028656666079 
-0.00019092341484 -1.4659681736e-06 2.8981802718e-05 -2.7676548908e-05 -1.8371850011e-06 5.253533301e-05 -0.00011233568909 5.1197506844e-05 -3.4948165918e-05 
-1.8634207863e-05 -0.00012351646666 -0.0002646014744 -7.0160326431e-05 4.8546811116e-05 0.00025524803843 -0.00015821981893 -6.5582079618e-05 -9.8605711219e-05 
0.00023151911331 -0.00016526863727 -7.0809143576e-05 -0.00020560108968 0.00012780307875 -3.7324581005e-05 9.2324378499e-05 -3.1697765303e-06 -0.00040841205572 
-0.00013547275095 8.4016279483e-12 0.00032163372989 0.023217189967 -0.0010789358215 -0.005011322968 -0.021562780528 -0.008389388799 0.047310150901 
-0.0017317827867 0.00020180111314 0.00064365928866 0.00084891749353 0.00016139359651 6.3547169946e-05 -0.0001044359493 -0.00010339284892 -0.00029407101741 
-0.00034706934061 -7.5608361452e-05 -6.6577505777e-05 -0.00013919555721 -0.00012723961441 5.4130562841e-05 -3.7320373964e-05 -0.00014809026453 -4.9042525979e-05 
-2.7251421402e-05 -0.00034622783064 -0.00047061376992 -8.1711415994e-05 -3.5084791102e-05 -0.00012968397784 0.0018086824223 -0.00066049296439 -0.0011948574467 
0.0011314671927 -0.0005048787897 0.00025079838646 -0.00012763966248 7.4128272417e-05 0.00032631007116 7.548854303e-05 -0.00042950911455 -0.00018070634419 
-0.0012980693754 0.00029916447161 -0.00031311280791 8.9153879704e-06 0.00021180468523 4.7044436959e-05 -0.00013487005992 -0.00017480161119 0.0001197442587 
-8.6531736603e-05 -0.001706090882 -0.00060231446859 -2.3996216593e-05 0.00014686386698 5.3172420711e-05 -0.00032168270503 -0.0020561020784 -0.0013545096695 
2.9666693231e-06 0.00026769658758 -0.0002254353444 0.0002033401048 -0.00015921679455 0.00016384527231 -0.00016510739701 0.00018907040117 -0.00054610480269 
-0.00011210656293 0.0001174839621 0.00019746510506 -0.00011531851667 1.81842372e-05 0.00017744015791 0.00026328968542 -0.00023064345251 -0.00029893129643 
-3.564056182e-05 8.5730189883e-05 0.00025814046074 0.00081392392914 -9.7734829943e-05 -0.0024367247643 0.00025936658741 -0.0028079741204 -0.00066047439411 
0.00028010806664 -0.0001140319452 6.7189650057e-05 -3.2470179179e-05 0.00033473024741 -0.00010047265805 0.00014163570845 -0.00010136822654 -0.00010632217358 
-0.00032573359253 -0.00021743999263 0.00016302962378 5.4696914311e-05 1.4145733818e-06 -0.00014676627377 0.00018034730331 -0.00024380480788 5.0686843452e-05 
0.01081521587 -0.011708515429 0.016255042962 -5.6865289204e-05 -0.00025800785992 0.00011777033441 -0.00015955162731 -4.7221022077e-05 0.00016049321392 
0.027757040796 -0.010141091255 -1.3975105586e-05 0.00042864281199 -0.00053544497984 2.3416439613e-06 0.0053096684148 0.004488918137 -0.00060229647208 
-7.5720602549e-05 0.00028099205282 0.00025655724794 -0.00012675135105 -0.00068898024005 0.0012612110279 -0.00048971739962 -0.00042110450051 -0.00049457474177 
0.00022080484813 -0.00036975389622 -0.00026559231238 2.511010079e-05 -4.9144387747e-05 -0.00029689849673 -0.00012201844758 -0.00031979672159 -7.5648484145e-05 
0.00022480455503 -0.00023012953397 -0.00039057132982 -0.00029994926522 8.1587070026e-05 1.7720327532e-06 0.001037702513 -0.0013471685268 -0.00033083843183 
-0.012378392503 -0.010997295222 3.1687475775e-06 -9.5625872767e-05 -0.0011222468996 -0.0010516471344 -0.00097338203831 -0.00033209882265 0.00051140517369 
-0.00047191469133 3.5215816277e-05 -1.4924801791e-05 0.00024516242448 -0.00031634931951 -0.00049749136685 -9.2841257659e-05 0.00012861862108 -9.6852471287e-05 
-0.00047812017131 -0.0001712975948 -0.00018450322314 -0.00037539067162 -9.6901991674e-05 -2.7436855224e-05 -0.0005935115777 -0.00013404168989 -0.00052694994439 
-6.4799006542e-05 -0.00029625251626 -0.00010041981617 -1.2968512567e-05 -1.6829061643e-05 3.3132614139e-05 2.2738329526e-05 4.9588470276e-05 2.3721944408e-05 
4.3857395125e-05 1.4275427901e-06 -2.856254741e-05 2.1179847881e-05 8.569188376e-05 0.00021168417382 1.7858786446e-05 -8.5676871475e-05 -1.8596872134e-05 
-9.6443345327e-05 -1.8459971047e-07 -8.7002181929e-05 3.8120238115e-05 3.1372546084e-05 -1.4539607605e-06 -0.0002897850441 5.7063348985e-05 -5.1846595175e-05 
-1.3817468225e-05 3.0851685146e-07 -1.4603305569e-05 -0.00020954180582 3.1924387859e-05 -0.00012707570269 -3.433910043e-06 -6.1621731503e-05 -1.358736401e-05 
8.9901866847e-05 -4.2784609345e-06 4.6784567483e-05 -6.0390660837e-05 -2.2935171083e-05 4.5363017146e-05 -9.1450817854e-05 -3.8357144005e-05 -0.00013265419386 
6.3237494539e-05 -0.00017531087788 0.00030114309026 -1.0930743528e-05 1.857565237e-05 -5.0122470556e-05 -0.00022875422836 -3.1338517997e-05 -4.7526163708e-05 
-0.0001363300232 0.00016275865472 0.00016128872415 6.7140941721e-05 9.9261334673e-05 -0.00011976055245 -0.00013043709622 6.085531044e-06 -7.0069881322e-05 
-5.6799820366e-05 -3.2003250576e-05 2.9206680558e-05 -0.0007375371304 0.00015786595897 -0.00029298751453 6.9670033284e-05 -5.9011762773e-05 3.9653185787e-05 
-8.3267653884e-06 6.9311450266e-05 -0.00019719590337 -0.00013436656723 -4.6204014655e-05 -7.0341491063e-09 0.00017407448996 -0.00038698634359 -0.00048419425529 
-0.00011037376959 -4.375884545e-06 -0.00019403230629 0.00020171635414 -0.00020692874297 -2.2132719941e-05 -8.6447297427e-05 -4.2665322605e-05 3.9822133539e-05 
-0.00010161038114 2.2575862349e-05 2.6582053066e-05 1.4102785672e-05 -5.378241166e-06 9.0033229823e-05 -0.00075245096886 -0.00029137547471 -0.00025523039367 
1.5712817323e-05 -9.8022700604e-06 -0.00023647262667 -0.00017151770274 -1.250737152e-05 0.00015613680269 -0.016874725438 -0.0062381344159 0.026951329688 
-0.00010612444811 8.5603516072e-05 -0.00013668422426 -0.00014400660662 0.00028012861402 0.00037385617468 -0.00040113541513 5.822699273e-05 -0.00023247874144 
-0.00014653326261 -0.00016309942232 2.1597868729e-05 -0.00076418529041 8.487766562e-05 1.286439318e-05 -0.00016200525447 -1.0960699531e-05 4.9043493222e-06 
-0.00024907542154 1.3026611001e-05 0.00025750351089 -0.00078867448412 -0.00020673149525 -0.0003192738988 -7.5016577672e-05 -0.00029327600471 0.00018977542926 
0.00035821107475 -0.00020266858682 0.00012398740143 -0.00012241347639 1.1174492189e-05 8.9609579449e-05 -0.00016119601229 -6.967850648e-05 -0.00010406327817 
0.00024248428085 -0.0016778409699 -0.00041818169434 0.00025196819132 -0.00018961684924 -4.14127602e-05 0.00019062455132 1.870674576e-05 3.243243158e-05 
-0.0001378326592 -0.00018905638033 -8.6077432038e-05 -0.00032536773078 9.1835172871e-05 0.00012019395314 0.0003098479739 -0.0002512542956 -0.00029154308818 
1.8417369054e-05 7.2741722804e-05 -7.0558077438e-05 2.7397093118e-05 -0.00013284295233 0.00027557341501 -0.0012065174359 -1.9423044683e-05 -0.0010450430152 
-0.00017154972282 -0.0012150093237 -0.00053778527635 0.00023206096942 -0.00023039154184 -0.00061900529216 0.00045535124174 -7.2954187736e-05 -0.00061245286978 
0.00039946262176 -0.0011870089699 -0.0013377535589 -0.00059839901518 -0.00081285117668 -0.00080940416807 -0.00030893437575 -2.3912246034e-05 2.7280389049e-05 
-1.1630714187e-05 2.4745305151e-05 -0.00026771563223 -2.0957395445e-05 -1.894012816e-05 -0.00025350773124 -0.00059943842186 -0.0012413355203 0.00078589265539 
-5.2900179444e-05 -3.4499546431e-05 1.1256937586e-05 -2.1850562199e-06 8.1702574931e-06 -0.001534138765 -0.00010439207453 1.1153715649e-07 -0.00020921276704 
-0.00013050607583 -0.00018943479339 0.00015750026627 -0.0010701828966 0.00093196115984 -0.0003810355992 -0.00030291006374 -0.00024373931506 -0.00057799516719 
-6.116103229e-05 1.935682446e-05 -0.00010145089187 4.5976177704e-05 -0.00029608501455 6.3006464973e-05 0.000236301726 5.3937116538e-05 -0.00012369005065 
-0.00013589084344 -0.00020498669725 -0.00033807914829 -0.00036738554218 0.00010866068337 -0.00032609675115 -0.00046924866585 -0.00017186590793 0.00019887176209 
-0.00013016369477 -0.0012079633651 -0.00042469464048 -0.00025756240576 -4.3727083553e-05 8.6682592604e-05 2.6342566641e-06 1.121405782e-05 1.7557404871e-05 
6.2522553305e-05 -0.00012415896403 -9.3154798531e-05 -5.2982443012e-05 -3.0156108013e-05 -4.5975305297e-06 1.1448576547e-05 -0.0002701035538 0.00016144838954 
0.00012276402577 -0.0002062064037 -0.00014517324905 -2.7942477503e-05 6.700658336e-05 -0.00070534276799 -1.109613528e-05 3.4232010528e-05 -2.521644159e-05 
-0.070951554491 -0.019002617403 0.068932284023 -0.00017918261691 -4.2335080709e-05 0.00010499995019 -0.00023656866144 0.00017409194828 -0.0001368013666 
-0.00010097782828 -1.2467489543e-05 1.8508796895e-05 -7.298410064e-05 0.00031117813131 0.00011843253167 -9.8163658779e-05 -9.8411893406e-05 -0.00028202053737 
3.3980196872e-05 -0.00019662871525 0.00020055384953 -0.00061799765892 7.397539224e-12 0.00080473983808 -0.00018441911387 4.5571342528e-05 4.9457858404e-05 
-2.8706296265e-05 -4.6011953965e-05 -7.4375771668e-05 -1.8030982117e-05 9.2084292136e-05 -9.3741458464e-05 -5.9965985035e-05 -2.0852650889e-05 0.0012663399598 
-7.5218139536e-05 4.3777394593e-05 -0.0001003897396 8.639705204e-05 -0.00015564324274 0.00022727114447 -5.296707477e-05 4.4605198882e-05 6.3005325159e-05 
-5.2207380506e-05 -0.00016658954342 8.3888574376e-05 -3.427544543e-05 1.6471478063e-05 0.00011889610808 -5.3524873395e-05 -1.2723848345e-05 0.00014600854902 
-0.00030545868458 -3.2044171262e-05 -4.1640868501e-05 -0.0002155518813 -8.722756121e-05 4.3683998856e-06 -0.00015206265273 1.7242601471e-05 -5.3585190058e-05 
-0.0001392324146 -2.1196304263e-05 4.9075419778e-05 -4.071552376e-05 -1.0825564139e-05 -0.00012235407201 -2.6293386671e-05 -0.00013985080368 -1.923805277e-05 
0.00011390483877 6.5149685544e-06 6.3007615841e-05 0.00012461950124 -9.421291219e-05 3.8957147016e-05 -0.00016278134608 4.5398230235e-06 -1.862205866e-05 
0.00019774330039 -8.7988176106e-05 -7.9749550047e-06 -0.0002456802505 -3.0808675735e-05 -9.232316423e-05 -0.00015599542504 -0.0001738534573 -2.5834965748e-05 
-5.7350449931e-05 -1.0112635401e-05 5.8120086037e-05 -0.00021213684398 1.447316769e-05 5.4165872721e-05 0.00042479438096 -0.00043501777406 -0.00081719487183 
-8.1941566404e-05 4.2374350251e-05 5.1003919925e-06 7.7678216471e-05 0.00011210857844 -5.6117296834e-05 -2.7543253516e-05 -9.3043194764e-05 -0.00013249169889 
-3.6347796664e-05 -1.1438051447e-05 -9.3983478388e-05 -0.00025014344512 8.8650773072e-06 5.3419191159e-05 -0.00045873474023 -0.00018795195714 0.00018784130284 
2.0268030616e-05 -9.5206633008e-07 -0.00012671524327 0.00040682496768 -0.00076250316283 -0.00082484861861 0.00011274756356 1.1785418161e-05 -9.6057432053e-05 
-0.0001581835501 6.0478135246e-05 4.1484114297e-05 0.00029817147126 -0.00023275178076 -0.00026623920977 0.0061201317351 -5.4879975352e-06 -0.0025070301379 
0.0002591039921 -0.00013982277353 -0.0005191923455 -9.6904086033e-05 -0.00034037481323 0.00027191921201 -0.00018034129081 -0.00011393642661 -2.9682506621e-05 
-0.00012442234712 -0.00028127244922 -1.6457483563e-05 -2.5306386202e-05 -1.7171972044e-05 -6.1954372171e-05 0.00079069322177 -0.00083282623247 -0.0012503780659 
0.00013798196882 -5.627399482e-05 -8.4926016619e-05 -0.00095023914072 -0.001575347786 -0.0015578866598 -0.0017673945526 -0.0011364307206 0.00072944439937 
0.00018432198714 3.3187108612e-05 9.5712855423e-05 -0.00074718747693 -6.6582746188e-05 0.00028457316936 -0.00028273650321 9.6078227608e-05 0.00011009833277 
0.00045231708551 -0.00061466437894 -0.00016562375997 -0.00014757138817 0.00012273460689 -0.00046207116783 -9.36493104e-05 2.5959850232e-05 5.6774731546e-05 
-0.0014751951147 -0.0036679273595 -0.0033295633509 -5.3893477106e-05 7.2613073178e-05 0.00019688700479 -0.0003199852318 -0.00013585840849 -0.00037802882305 
-2.0665466938e-05 -0.00023215311859 -0.00011405093279 0.00048859739089 -0.00054432141659 -1.6016925844e-05 -0.00015600161381 -2.4225836372e-05 0.0002031606773 
-0.000884451813 -0.0028804545852 -0.003791261357 -0.00014742040464 9.6520140232e-05 -0.00033157062344 -5.1701861183e-05 6.3068831439e-06 0.00032708021965 
-0.0088115540538 -0.017990522698 -0.0078341304698 5.3488431417e-06 -0.00033548983171 0.00027840273801 -0.00011241735709 -3.6845829852e-05 -0.00022924328491 
-0.00024220865594 7.1366142267e-05 -0.00021253547542 -0.000100520354 7.6947759224e-05 -0.00017120318269 -0.01926555834 -0.002347925592 -0.016742509543 
3.6511281506e-05 -1.6015832068e-05 -0.00018357535341 -0.00014561679348 0.00016520035041 -4.3985067728e-05 3.866392034e-06 1.0066233366e-06 5.8800969809e-06 
-5.5903628095e-05 9.4097266322e-06 0.00015342042282 -0.00012575669996 0.00019134511838 -1.0836482615e-05 5.7676932065e-06 -0.00015263201461 0.0002201309235 
8.7286348556e-05 1.4887566744e-05 -0.00011513617298 -1.0158479158e-05 9.6156099202e-05 2.8209790177e-06 1.8579809854e-05 -6.8607715066e-06 -1.5051221709e-06 
-2.7581218053e-05 -9.7785998342e-06 -1.5443106207e-05 -7.9691969603e-05 -3.966194796e-06 2.8478648705e-05 -0.00015196012844 -0.00011800998428 -2.4656854023e-05 
-6.655676146e-05 6.0326929879e-07 0.00014526235818 8.0918088828e-05 5.5480551246e-06 6.4238113882e-05 -0.00024060143016 2.304424388e-06 -0.0026261628683 
-0.00072714557472 0.00025001043963 -0.00045098785145 -1.2947681699e-06 -9.5858538178e-05 -6.926432383e-06 -6.8966002493e-05 9.3259391633e-05 5.1933150225e-05 
3.0392349404e-05 -2.0068907697e-05 0.00017395919421 -3.4712129016e-05 2.3367750903e-05 5.1622084098e-06 -0.00013020283734 3.6634706616e-12 -0.00013117511104 
1.5924817317e-05 2.3130924505e-05 -1.5319350968e-05 -5.9030383224e-05 -1.8141149906e-05 2.5939216793e-05 -5.6845138242e-06 2.7868784858e-05 8.9635694724e-05 
4.624897807e-05 -1.6187787477e-05 -0.00032065442334 -8.0181788808e-06 -7.5419947099e-05 -0.0001291755691 -0.00011774008915 -1.7226348447e-05 -1.8817914803e-06 
-4.5673572587e-05 -1.452840744e-05 -2.6581185386e-05 -6.6700464609e-05 -0.00013112800442 0.00010850738213 -0.00018121114727 -5.0805763796e-05 6.383262432e-05 
-7.3151062518e-05 0.00012168767844 -5.2894904411e-05 -0.00017031949065 7.1732781698e-06 -6.5425799128e-05 2.0954064368e-05 3.3261417691e-05 0.00011400829588 
-0.00017968555997 4.5114360215e-05 0.0001771722629 -0.00032764885854 -3.6999356735e-05 -3.331664496e-05 0.00012760776445 -3.4593340623e-05 6.0873483824e-05 
-8.6203924709e-05 -7.9090775753e-05 -6.8985587916e-05 -9.9369353081e-05 1.3129830104e-05 1.67198166e-05 -5.4300910678e-05 -1.4724534397e-05 5.7899440709e-05 
-0.00013987348571 -3.5380095959e-05 4.5098740262e-06 -0.00020458669147 2.6148071771e-05 9.6314961812e-05 -0.00016347511397 -4.7939721342e-05 2.0866269531e-05 
0.00014224577061 -5.7831004768e-05 4.9560841987e-05 -0.00019673771896 -0.00019372533661 0.00015863257346 -0.00091061912614 -0.00052745609089 -0.00099455892271 
-0.00096153594111 0.00041249762009 8.7888995409e-05 6.9089428718e-05 -2.7961176269e-05 2.7884162644e-05 -0.00055133304648 7.8374859424e-05 0.00039374035217 
-0.00010756259908 -5.436198325e-06 3.3866702922e-05 -0.00096812821941 0.00039520970969 -0.0009389383183 -6.1132574619e-05 -9.9687656314e-05 -7.1580044746e-05 
-0.00018813860301 0.00035338847989 0.00024091111189 -0.00012351616904 -0.00027306255757 0.00020911593471 0.00016007341789 -4.415247443e-05 -0.00030395594919 
5.6160488218e-05 -1.9558638596e-05 0.00011272488979 6.9503304899e-05 0.0001111674629 -0.00013125167716 9.6549814377e-05 4.1411017448e-05 -9.6923553671e-05 
-0.00019702165243 -0.00030277033055 3.3427706774e-05 0.0086031814186 -0.0040153808779 5.4424545359e-05 6.6984593862e-05 -0.00022143131092 4.4109002053e-06 
-0.0016687335318 1.7163654028e-05 0.00045746651896 -0.00021899189792 -0.00029018962965 0.00011987877998 0.00081332797833 -0.00038946858941 -0.00022376927966 
-0.0010769022876 -0.0035799268556 -0.0034167212534 -0.0015422421595 -0.0025148244536 -0.00062034468574 -0.00018303687846 -0.00012872458531 -1.7887541637e-05 
0.00036245236802 -0.00020352564947 -0.00091999021686 -1.4296364933e-05 -8.6482350213e-12 5.7735034918e-05 1.3386285643e-05 -9.6805185113e-05 -0.00042670492426 
-4.7972168902e-05 0.00011447386519 4.457583612e-05 -0.00031604781311 -1.8257302201e-05 -8.7035336512e-05 -4.7349932711e-05 -1.3379955083e-05 -0.00068810489598 
-0.00074516910437 0.00039874374467 -0.0001786255145 0.00072402985781 3.9981585784e-05 0.00014475748035 -0.00021912988671 -2.2680287224e-05 -0.00021531712918 
0.00024196396172 5.8801070571e-05 -0.00016801383067 -0.00020585156507 5.6174746166e-05 -0.00066467169836 -0.00019013580255 -4.9859113897e-05 -0.00011122893668 
-5.4595842361e-05 -7.630314091e-05 4.0978258647e-05 0.023492910875 -4.5088763007e-12 -0.0034095707883 -0.00021875532192 8.422184395e-05 0.00020813139515 