# vtk DataFile Version 4.1
vtk output
ASCII
DATASET UNSTRUCTURED_GRID
POINTS 1274 float
0.434116 -1.27989 -0.0321207 0.419504 -1.29677 0.130758 0.425018 -1.27918 0.29142 
0.197343 -1.3409 -0.144245 0.728944 -1.11576 0.00450837 0.746586 -1.26903 0.0579966 
0.488393 -1.29131 0.314103 0.71478 -1.23295 0.362762 0.811247 -1.0092 0.0546132 
0.878999 -1.02654 0.0909548 0.660408 -1.35439 0.176873 0.838187 -1.17689 0.328487 
0.873891 -0.522547 0.0217552 0.789851 -0.312012 0.0276785 0.858543 -0.841359 0.169505 
0.849352 -0.879142 0.255238 0.843267 -0.589534 0.208103 0.803512 -0.21991 0.0649725 
0.81515 -0.61828 0.0285358 0.873602 -1.24859 0.125516 0.817783 -0.524718 0.0809681 
0.885925 -1.05816 0.21584 0.791278 -0.409665 0.276271 0.798044 -0.65863 0.200432 
0.787328 -0.154547 0.0316911 0.822652 -0.692321 0.104294 0.814772 -0.233398 0.267871 
0.768661 -0.0865985 0.0339283 0.848905 -0.441884 0.0940522 0.827362 -0.333326 0.1381 
0.847975 -0.141249 0.066003 0.809103 -0.450894 0.154974 0.825748 -0.379237 0.22211 
0.904655 -0.173647 0.0910491 0.936088 -0.332102 0.0494428 0.789121 -0.246084 0.152456 
0.890919 -0.586317 0.0654117 0.821683 -0.30267 0.217126 0.814963 -0.475342 0.21884 
0.762287 -0.0688195 0.100782 0.874833 -0.20924 0.0421073 0.881428 -0.310035 0.192925 
0.78686 -0.133472 0.192513 0.792629 -0.151707 0.26491 0.790296 -0.135264 0.117891 
0.943617 -0.223258 0.0243391 0.773116 -0.0789312 0.249365 0.76229 -0.0763197 0.164246 
0.614993 -1.28532 -0.27173 0.172113 -1.34821 0.295277 0.190708 -1.38023 -0.0450862 
0.0867817 -1.32914 0.17694 0.352061 -1.35449 0.477918 0.30971 -1.35487 0.387929 
0.295848 -1.31723 0.2027 0.462711 -1.34007 0.269696 0.231913 -1.33676 -0.23177 
0.410446 -1.40871 0.0491118 0.788236 -1.28373 -0.0795415 0.312431 -1.35252 -0.213235 
0.487601 -1.34884 -0.131377 0.463063 -1.32612 0.395471 0.524668 -1.2958 0.39174 
0.367503 -1.34059 0.22382 0.284054 -1.35716 0.0286593 0.741568 -1.21697 0.000164644 
0.52248 -1.35426 0.0199547 0.743111 -1.35007 0.273271 0.53401 -1.29974 -0.0991108 
0.529862 -1.24303 0.254538 0.722169 -1.33308 0.0547281 0.672432 -1.21991 0.249097 
0.52003 -1.27381 0.1175 0.403562 -1.27311 0.417215 0.704533 -1.27623 -0.0232642 
0.70155 -1.4128 0.130131 0.777386 -1.15739 -0.0215804 0.442732 -1.26433 -0.140807 
0.77145 -1.35429 0.0879905 0.806222 -1.20751 0.113371 0.825793 -1.08086 0.29052 
0.610211 -1.25831 0.39654 0.682361 -1.35037 0.434872 0.581746 -1.30427 0.25047 
0.637325 -1.26737 0.27864 0.564235 -1.31815 0.124832 0.845571 -1.14552 0.0725034 
0.887239 -1.10574 -0.0319402 1.00073 -1.26018 -0.183839 0.793847 -1.20272 0.204483 
0.707739 -1.26237 -0.125242 0.892743 -1.14175 0.29123 0.839808 -1.12489 0.248191 
0.802319 -0.867825 0.0426583 0.883877 -0.287805 0.0320182 0.803874 -0.784377 0.0332871 
0.865146 -0.78743 0.112058 0.947841 -0.908857 0.214009 0.854785 -1.02391 0.160932 
0.864492 -0.807687 0.270293 0.863595 -0.603124 0.282127 0.86942 -1.02282 0.271402 
0.938969 -1.00926 0.191602 0.866501 -0.637921 -0.00254968 0.859981 -0.651417 0.0719502 
0.847151 -0.940458 0.109106 0.870696 -0.557267 0.138455 0.914566 -0.807193 0.210579 
0.926958 -0.646819 0.253696 0.82234 -0.537439 0.279253 0.889633 -0.743163 0.316182 
0.933948 -0.402316 -0.012862 0.901154 -0.74753 0.0663706 0.855528 -0.743958 0.16764 
0.835843 -0.324113 0.275261 0.986498 -0.227833 0.0985251 0.910199 -0.477372 0.269738 
0.884796 -0.541536 0.243247 0.865454 -0.405339 0.289383 0.849812 -0.657315 0.15561 
0.881696 -0.232526 0.224292 1.00809 -0.369201 0.0179262 0.944373 -0.708497 0.108082 
0.975024 -0.157062 0.0427729 0.885878 -0.313339 0.0958693 0.862322 -0.415481 0.162252 
0.875821 -0.109524 0.260951 0.917112 -0.450161 0.205742 0.91141 -0.125454 0.191081 
0.906206 -0.183737 0.284439 1.0245 -0.211146 0.0347598 0.860295 -0.165034 0.153822 
0.929417 -0.202134 0.148771 0.843964 -0.165386 0.220595 0.926312 -0.259939 0.0998282 
0.868695 -0.239951 0.123502 0.0941541 -1.41332 -0.264539 0.379075 -1.35406 -0.195033 
0.460526 -1.4092 -0.397669 0.0351657 -1.33687 0.329437 0.262639 -1.33429 0.472175 
0.105256 -1.40687 0.183577 0.25057 -1.34684 -0.359612 0.590948 -1.33116 -0.342679 
0.174397 -1.34095 -0.306026 0.566645 -1.33329 0.463611 0.337179 -1.28769 0.502227 
0.172264 -1.34943 0.367179 0.276964 -1.41179 0.295189 0.0975777 -1.35245 0.0244808 
0.333203 -1.3357 -0.139994 0.118981 -1.34851 -0.265648 0.546349 -1.34727 0.306551 
0.387679 -1.40768 -0.0267561 0.188776 -1.32948 0.236332 0.273217 -1.35178 0.11628 
0.363326 -1.29382 0.315857 0.488018 -1.27798 -0.24012 0.334765 -1.34881 0.0732054 
0.544681 -1.2712 0.197476 0.260381 -1.28274 0.152043 0.637332 -1.32388 0.393019 
0.931797 -1.29451 0.533048 0.620867 -1.36245 0.440521 0.40718 -1.28556 0.229657 
0.384137 -1.34679 0.153537 0.403905 -1.34984 0.0898516 0.653177 -1.29273 -0.164033 
0.629594 -1.32361 -0.225564 0.675335 -1.31757 0.231743 0.677397 -1.22344 0.423425 
0.781346 -1.299 0.401576 0.839479 -1.27243 0.422078 0.535687 -1.36226 0.224106 
0.756816 -1.41468 0.16222 0.738703 -1.20084 -0.102863 0.772469 -1.36243 0.193852 
0.851612 -1.24043 -0.135428 0.823154 -1.11965 0.0114868 0.930545 -1.05809 0.275151 
0.856691 -0.943991 0.325908 0.60696 -1.25321 0.0647392 0.809629 -1.07781 0.169086 
0.854136 -0.949974 0.0291062 0.723812 -1.2421 0.205734 0.932386 -0.713335 0.218321 
0.94184 -0.853113 0.152705 0.804982 -1.14213 0.137871 0.958341 -0.520472 0.270596 
0.814746 -1.22672 0.278263 0.867996 -0.394306 0.0369376 0.930761 -0.615614 -0.00973661 
0.923479 -0.910182 0.0141043 0.896107 -0.783942 0.00954958 0.906075 -0.838323 0.0511263 
0.890628 -0.962696 0.161781 0.867567 -1.22019 0.229526 0.903602 -0.486858 0.069676 
0.970315 -0.321862 0.115707 1.00785 -0.414477 0.0701211 0.955134 -0.449852 0.0465845 
0.91272 -0.757165 0.149305 0.996428 -0.694691 0.242327 0.980945 -0.244888 0.166434 
0.90808 -0.346611 0.252048 0.910764 -0.637476 0.172991 0.981756 -0.83096 0.20273 
0.92978 -0.523684 0.182535 1.02469 -0.853533 0.122217 0.973074 -0.671672 0.169144 
0.991647 -0.280767 0.0519123 0.959546 -0.319095 0.207962 0.923389 -0.372688 0.169743 
0.998633 -0.51222 0.205181 0.312574 -1.4153 -0.361276 0.213788 -1.39722 -0.324743 
0.0425511 -1.4135 -0.0238733 0.534661 -1.28309 0.5312 0.0339677 -1.41171 0.188897 
0.135259 -1.34628 -0.0895756 0.364577 -1.30129 -0.394473 0.0368958 -1.38186 0.0404083 
0.0974102 -1.32104 0.533199 0.374949 -1.40627 0.188708 0.1734 -1.41314 0.440935 
0.382925 -1.33135 0.532516 0.1019 -1.37445 0.246441 0.391962 -1.34833 -0.25982 
0.263987 -1.35186 -0.156484 0.284073 -1.41429 -0.201551 0.161534 -1.33598 0.170253 
0.423245 -1.2923 0.499308 0.0914031 -1.39759 -0.184269 0.993958 -1.41418 0.445362 
0.258751 -1.40735 0.214067 0.32497 -1.32726 -0.0136776 0.470403 -1.35087 -0.247318 
0.209991 -1.33131 0.0210383 0.615397 -1.41374 0.209173 0.501341 -1.4131 0.145063 
0.573636 -1.2833 0.333454 0.349299 -1.35619 0.333277 0.233955 -1.35032 0.173896 
0.395419 -1.34731 0.287717 0.841722 -1.41271 -0.181782 0.226662 -1.37334 0.280147 
0.448467 -1.35168 -0.0256277 0.235619 -1.31609 -0.0503956 0.435832 -1.41526 -0.138338 
0.384556 -1.32958 -0.0479148 0.575544 -1.34583 0.375701 0.668179 -1.27219 0.335933 
0.379458 -1.34909 0.0198607 0.458873 -1.35114 0.0456928 0.87591 -1.29251 -0.0760809 
0.455239 -1.35827 0.140424 0.402166 -1.35867 -0.137219 0.481314 -1.29471 0.172579 
0.508145 -1.30179 0.239927 0.437559 -1.34715 0.203483 0.743433 -1.22881 0.303456 
0.612472 -1.28487 0.161971 0.872699 -1.21528 -0.0658828 1.03134 -1.34857 -0.0639127 
0.478846 -1.29307 0.018297 0.634589 -1.30328 0.039238 0.936573 -1.38662 -0.0245988 
0.805665 -1.30316 0.0687533 0.777633 -1.28415 0.250064 0.626293 -1.36413 0.253966 
0.714744 -1.28317 0.27558 1.06326 -1.36026 0.349792 0.774066 -1.33928 0.0184346 
1.01004 -0.432108 -0.00850834 0.913446 -1.06529 0.0366991 0.958926 -0.742038 0.0330485 
0.858762 -1.27333 0.0666024 0.911818 -1.17376 0.129933 0.935642 -1.23324 0.088296 
0.977111 -0.605403 0.288462 0.853745 -1.16367 0.195733 0.888934 -1.30036 0.249071 
0.919119 -0.961307 0.0620873 0.951822 -0.807177 0.100714 1.01193 -0.751787 0.0853353 
0.966788 -0.608148 0.057662 0.932618 -0.931272 0.122986 0.914344 -1.18731 0.199705 
0.903506 -1.10387 0.105281 0.98079 -0.76842 0.160817 0.920692 -1.04498 0.137894 
0.941841 -0.18511 0.220542 1.00756 -0.8189 0.0593106 0.991579 -0.912317 0.152636 
0.979717 -0.915898 0.0654589 0.964271 -0.494126 0.112824 0.95099 -0.409685 0.282272 
0.0341595 -1.39482 -0.225104 0.0314968 -1.4142 -0.153419 0.0354883 -1.40775 0.468713 
0.083334 -1.41424 0.293771 0.0951013 -1.39097 0.528372 0.11762 -1.41553 0.469507 
0.0800831 -1.40686 -0.340964 0.179343 -1.40438 -0.394949 0.409951 -1.36552 -0.403686 
0.03362 -1.41208 -0.290654 0.0833094 -1.41295 0.0819991 0.310206 -1.4091 0.464231 
0.0351482 -1.41055 0.340189 0.264901 -1.40869 0.364989 0.163241 -1.41182 0.531972 
0.365939 -1.3423 -0.325956 0.145729 -1.41429 -0.333645 0.156958 -1.4147 -0.272253 
0.663649 -1.41014 -0.302046 0.444814 -1.41293 -0.238453 0.147005 -1.41367 0.0937283 
0.149384 -1.3544 0.429958 0.451148 -1.34636 0.528702 0.109651 -1.34417 0.327646 
0.53978 -1.4062 0.403344 0.207433 -1.38214 0.0852905 0.339975 -1.40765 -0.161269 
0.339554 -1.41419 0.0954039 0.255899 -1.41107 -0.0643406 0.441806 -1.34626 0.456579 
0.38318 -1.33872 0.420839 0.325915 -1.4098 0.245545 0.769866 -1.34583 0.52642 
0.238197 -1.34435 0.34108 0.480475 -1.35861 0.338088 0.549166 -1.34984 -0.224472 
0.43625 -1.32807 -0.188572 0.109883 -1.35462 0.110797 0.488455 -1.40672 -0.18228 
0.324661 -1.3297 0.275676 0.323038 -1.34849 0.155986 0.506767 -1.34993 0.435772 
0.433554 -1.332 -0.0905163 0.522339 -1.41005 0.0625109 0.721216 -1.25963 -0.309833 
0.690722 -1.30934 -0.221042 0.631291 -1.41474 0.0681727 0.632863 -1.29616 0.461247 
0.722316 -1.41098 0.237038 0.616842 -1.36278 -0.278037 0.494069 -1.41401 0.209185 
0.777971 -1.3542 0.361092 1.03982 -1.28104 -0.104794 0.632797 -1.28752 -0.0266701 
0.526604 -1.34803 -0.0485231 0.672648 -1.37164 0.0470523 0.593427 -1.35235 0.0714128 
[...]
POINT_DATA 1274
FIELD FieldData 10
VELOCITY 3 1274 double
-0.75160656383 0.12762141748 -0.16224895798 -0.41040573348 0.098450466632 -0.063759612755 -1.0230864753 -0.34416612202 0.11107567773 
0.12241411803 0.097203016709 -0.44467183553 -0.90596949053 -2.7073645332 0.22663460816 -0.31944700634 -0.19930337561 -0.17183822824 
-0.64752867523 0.024467641903 -0.21801660566 -1.0944697962 0.6194754785 0.59961010731 0.066377370805 -5.1510247356 0.061049706801 
-0.077469511247 -4.234019562 -0.34346610098 -0.76860071362 -0.075108039815 0.058687906257 -0.56761306784 -2.4159722354 1.2277722704 
0.43416998517 -3.9074102562 -0.37522295724 0.35041661959 -2.9429227883 -0.085161457284 0.40840497368 -4.7177481018 0.02647955751 
0.33856198507 -4.6253195544 0.13598063451 0.45593459204 -4.2189570855 0.090294791215 0.63431562972 -2.7882409591 0.13736430357 
0.34961577928 -3.9889893851 -0.24685182038 -0.19179438684 -1.9264718629 -0.59128015424 0.40349472055 -3.9218484745 -0.17237461721 
-0.1464850408 -3.6858802718 0.21450427671 0.13600701996 -3.7226640679 0.12889617903 0.0061214028643 -4.1885759203 0.10408898979 
0.77279446137 -2.7719137054 -0.055283742968 0.32684913308 -4.5119341629 -0.10800858534 0.81837968896 -3.1262250887 0.10087905313 
0.92264820556 -2.6433141085 0.00353693486 0.22261843089 -3.8276715292 -0.14154992344 0.6350499126 -3.2449258323 0.10957125828 
0.82889338425 -2.829435693 -0.12200939154 0.12977856984 -3.8224162573 0.050628154428 0.52633024148 -3.5832263348 0.30863599168 
0.82040374111 -2.9513077593 -0.27772523162 0.44144250415 -3.5772703846 -0.17614774503 0.41764998093 -3.2876925473 0.18124086079 
0.11436812116 -4.3175758226 -0.17719023338 0.80381106856 -3.4449208018 0.098273876279 0.30578724849 -3.9078075679 0.047608388251 
1.0208649697 -2.7856050254 0.10977592678 0.65401410756 -3.0955616072 -0.083582997368 0.85451661082 -3.4159878758 0.19152268484 
0.96246331901 -2.9051745546 0.027731105771 0.96855991223 -2.9640556844 0.0032903157419 0.92050636845 -2.8632246384 0.022300419108 
0.64586621855 -3.1760342078 -0.19436051204 1.0421245035 -2.8758082007 0.095947752652 1.0104181884 -2.7851349389 0.11050799712 
-0.67209298292 -0.38263311351 -0.0096629300929 -0.10001043786 0.12174201792 -0.21510274336 -0.041749447118 0.090564430159 -0.10149813075 
-0.38330979297 0.041810652886 -0.034590192986 -0.28170752653 0.093174183395 -0.092381980876 -0.17521137259 0.049561305239 0.12609640082 
-0.25045813149 0.038018582691 -0.20399416211 -0.36719964954 -0.27824192603 -0.075457319695 -0.88991800422 -0.36592048479 0.030737721323 
0.013767551031 0.037451421377 -0.07822078818 -0.54066146303 -0.30732779832 0.081067829971 -0.48149118804 0.21177285778 -0.066147299009 
-0.52119996562 0.089191537909 -0.087961177069 -0.40808884427 0.036412765415 -0.069428298846 -0.35053347968 -0.079218434077 -0.065125665406 
-0.48544503219 -0.010625234855 -0.013005842748 -0.30417109475 0.22225489327 0.044264323422 -0.37721802026 -0.93137078546 -0.7225748776 
-0.56353216533 0.089953934238 -0.21708023478 -0.62280519745 -0.059729790707 0.15406950115 -0.56668931771 0.30489192614 -0.16467932214 
-0.80414490621 -0.20331656497 -0.21721543905 -0.60875228578 -0.098620630298 -0.16931877459 -0.78542676067 -0.72190979322 -0.059166281566 
-1.0203630858 0.13206004582 -0.14450280937 -0.19724646202 -0.0028341126354 0.071895886865 -0.87308677601 -0.76248826059 -0.36892496156 
-0.30223362567 -0.00023917228705 -0.35116913014 -0.76214381943 -0.7592081826 -1.733061247 -1.1939415698 -0.048662875639 -0.1023846085 
-0.72231274639 -0.17733804115 -0.05139788075 -0.85049216769 0.15029908746 -2.3929315748 0.23265401904 -5.0298752425 0.12683337293 
-0.97583173109 -0.23305571647 0.30912458639 -0.41329753306 -0.0092600693231 0.046680207116 -1.2153522432 -0.099237717513 0.1497934452 
-1.0675869452 -0.4521620752 0.19959946567 -1.3459310122 -0.32558446561 -0.15791384795 -0.98003700734 -1.8725523143 -0.76561136041 
-0.32234499516 -2.8237615306 -0.73062367278 0.25120896305 -0.47511274571 -0.67294672562 -0.9715047652 -2.9388649529 -0.34877704631 
-0.89299841268 -0.35134002721 -0.63421348437 -0.63952863382 -2.1238046569 1.0382101814 -0.63261546644 -4.5888534157 -0.30377759136 
0.21663882077 -4.8117404699 0.020265959856 0.66640021905 -3.1643035105 -0.012092483562 0.05490019338 -4.7387582421 0.00070048278386 
0.26011888573 -4.7476304212 0.0048116500101 0.27096936361 -4.9897801821 0.042406961122 -0.24657536075 -4.6375323926 -0.33863605166 
0.35849842632 -4.5889433642 0.028269685887 0.58627272699 -4.0485767454 0.15175513367 0.091374629405 -4.9399057554 -0.048039847285 
-0.33651702512 -3.8437892188 -0.3583107553 0.050585189559 -4.4454129596 -0.26469259043 0.26808408187 -4.437309768 -0.11750180512 
0.27645226894 -4.9590136235 0.055071230289 0.31459188212 -4.2499740797 -0.088253273528 0.43151294477 -4.7599390431 0.032574215825 
0.46022162386 -4.4412455599 -0.03024187354 0.34725652172 -4.0917370361 0.11117261655 0.10610136053 -4.3904769337 0.28992679511 
0.25108915745 -3.5208063217 -0.43543956988 0.30977614786 -4.7272148905 -0.1191108032 0.11977168747 -4.6838161571 0.066876627792 
0.60624903155 -3.5190144004 0.15869726658 0.48396544971 -3.2215898746 -0.20302946493 0.30010172651 -4.1612185039 0.021193709729 
0.42273275315 -4.2163366579 0.13098637371 0.25707766001 -4.0298941801 0.27036140875 -0.023179567899 -4.5102441009 -0.16437601595 
0.77021582867 -3.2047807045 0.0051325149094 0.14212276836 -3.8680999061 -0.1846786682 0.23333140032 -4.7469116809 0.051966959256 
0.14914587827 -2.7022703244 0.15020254028 0.6112343082 -3.4855669876 -0.027548935258 0.26176612225 -4.0114119867 0.030402226202 
0.7289688365 -2.8174475487 -1.2655085027e-07 -0.041333208381 -4.041906302 0.016311388765 0.69039125955 -2.8189989949 -0.057126509805 
0.29295355863 -2.8491333894 0.28210486135 -0.11326626154 -3.068479588 -0.14568730836 0.74560511918 -3.0016392328 -0.10191245517 
0.433315985 -3.0518142652 -0.14098188782 0.93852473785 -3.0386295213 -0.018942810772 0.31474350984 -3.1064077609 -0.083006786767 
0.42090481821 -3.2327107359 -0.2847801051 0.0045268691289 -0.0012459913585 0.010205265599 -0.45237392403 -0.13595564406 -0.20669139268 
-0.29491059382 -0.0075427215123 -0.0031415281209 0.00084356346126 -0.067513803472 0.067631079772 -0.058683494437 -0.021548804691 0.084334296402 
0.004374155626 0.0046527804419 -0.0053553166738 -0.1296662696 0.071549631664 -0.20386332371 -0.41414405171 0.052645782113 0.011155227696 
-0.2840337339 0.012950071781 -0.35667408077 -0.48048512372 0.0047436467889 0.048450567432 -0.47577718851 -0.038138095466 -0.061067224278 
-0.022549610555 0.0124519675 -0.0087585475104 -0.15104744588 0.0010688406089 -0.017341934032 0.03095568534 0.011822272191 -0.28804084619 
-0.46266328054 -0.035101268601 0.00062210143881 -0.16508296038 0.061673293852 -0.18068356313 -0.37113671843 -0.022033874694 -0.15912742978 
-0.17400102059 -0.0001717007204 -0.096614654295 -0.22712484584 -0.033872808519 -0.30007118348 -0.44259978139 -0.10315599592 0.016435886657 
-0.63520816404 -0.22734944061 0.094751559306 -0.65364016719 0.1658149251 -0.34743844137 -0.25800653961 0.017421222147 0.033658009658 
-0.61451670759 -0.057705068018 -0.27339593577 -0.96039023639 -0.056111299368 0.10359043752 -0.38608764838 0.12413935024 0.21462096727 
-0.38370888027 -0.16491593464 -3.2895193704e-06 -0.40104932099 0.057040042989 0.15934182539 -0.79331921848 0.21395466598 -0.051791972109 
-0.34923408845 -0.088437960011 -0.21764287568 -0.25351012506 0.003486570861 -0.0021611357084 -0.9698564469 -0.010259088506 -0.55575091669 
-0.73375063452 -0.11246218198 0.18875682315 -0.66674136074 0.50340554134 -0.16643845396 -1.1034474381 -0.17901063479 1.0544155429 
-0.51665545819 0.25126992507 0.51597058887 -0.36441293146 -0.55263870249 1.4438455817 -0.16883607644 0.25671639297 -0.2394487286 
-0.49627112445 0.0020921902161 -0.012706183123 -0.89838834156 0.20809770099 -1.1718831372 -0.86312608753 -0.010026474645 0.19511384191 
0.12796618758 -0.55938965771 -1.5897546336 -0.7571596078 -1.5462136829 -0.78712325069 0.037887146693 -5.0206368485 0.15076321696 
0.0071571199494 -4.960160925 0.3022494945 -1.2414088526 0.17427416465 -0.64747032913 -0.029787585172 -0.57170886575 1.0666674606 
-0.98627125905 -4.5879921571 -0.57490269638 -1.5078823191 -0.0459198982 0.11643102988 0.10982115663 -4.6102072514 0.15763057306 
0.44765527969 -4.8322274911 0.025017522555 -0.68638565609 -0.20960275193 -0.65962230354 0.067796146036 -4.1557625494 0.057671263756 
-0.9405624351 -1.6475041809 0.39317363125 0.36603441502 -3.4496062678 0.010064477391 0.048439797456 -4.3264923956 -0.30558913905 
-0.14903800573 -4.1893689778 -0.74841573605 0.18154641576 -4.7784532046 -0.11416338814 0.28964646736 -4.7936516289 -0.10689583856 
0.19022179799 -4.8933870558 0.065815240745 -0.89600141271 -2.871243297 0.1125644898 0.34090795852 -4.0739087297 -0.17267770138 
0.14817983051 -3.5991053132 -0.020342963496 -0.11904795896 -3.8313372355 -0.2058150264 -0.013781060887 -4.0101738171 -0.41117895493 
0.15820538568 -4.6468893112 0.05416722313 0.16681958357 -4.7367565592 0.1190795261 0.15876268683 -3.3464742988 0.056489652222 
0.011669243055 -3.7755303857 0.038504909745 -0.070701413353 -4.3715584088 0.0011683096037 0.41515546123 -4.8261499823 0.062064760829 
0.21666888759 -4.0972247759 -0.034547132708 0.066524954998 -4.9709511666 -0.0086192312503 -0.053326930354 -4.5170771559 -0.020147518921 
0.40895867503 -3.4993326708 -7.8597558309e-05 -0.12502711192 -3.4984075428 0.021304304464 0.094147912091 -3.780190084 0.013872335368 
0.16293050822 -4.0320411435 -0.11694640129 -0.061158668486 0.00010807793127 0.037970919875 0.018549906407 0.093679263834 -0.013844221552 
-0.15794804054 0.00039248122574 -0.0094434101517 -0.52262695374 0.043189418275 -0.015486730554 0.0046511136835 0.00757272349 0.061854572803 
-0.096813344499 0.12074044472 -0.017020562894 -0.1576120531 -0.1502012404 8.9293706619e-05 0.00044580896954 0.083128123652 -0.056318391327 
-0.22882598419 0.10664703901 0.0001754183652 -0.1073643562 0.014749012266 0.027724681037 -0.15010282631 0.00073117579038 -0.050329551704 
-0.41601969072 0.062626361157 -0.00091340681345 0.10189051816 -0.037942619665 0.023525681616 -0.32548975669 0.076074035215 -0.16229690067 
0.17308959181 -0.18724170589 -0.03576168117 -0.0071283605429 0.0017620644823 -0.021336899124 -0.29503513657 -0.014051091841 -0.27503947651 
-0.49375910951 -0.006916039874 -0.27142339632 0.02348855259 0.35232792024 -0.061394825491 0.1275023965 5.2587515336e-05 0.25971398719 
-0.13861922471 -0.00063872022395 -0.1185916755 -0.70877190178 0.23446635777 -0.33652198201 -0.18284750351 0.057169665693 -0.25700713996 
-0.77564082821 -0.21168438098 -0.1761843306 -0.052769804533 7.0239579706e-05 0.11958723909 -0.079530616585 0.00045184222763 -0.016311708062 
-0.69659381565 0.0491098978 0.028845243149 -0.41022900119 0.091028622389 -0.05193852141 -0.31120076316 -0.072161876305 -0.11492917069 
-0.39482165063 0.040909150549 -0.047746264394 -0.29694783142 -0.012551387375 -0.1350437571 -0.15058345956 -0.040448901112 -0.13723779522 
-0.57549971488 0.15658531771 -0.11325842705 -0.21814614964 0.20984499408 -0.19075245837 -0.016745921658 -3.4522254468e-05 0.082856562004 
-0.69141238191 0.023950709938 -0.29282878976 -0.29977814984 -0.0092044949426 -0.11250165766 -0.69098153765 0.15211377546 0.26554728667 
-0.85908699067 -0.35280637489 -0.2892033921 -0.41862967104 0.078661292017 -0.13328012715 -0.20708667085 -0.1397437635 -0.67865227159 
-0.56043720624 -0.11642849934 -0.01034618661 -0.31842241109 -0.1231517253 -0.2594442421 -0.92929317356 0.32069569935 -0.01079964639 
-0.50967134579 -0.29557343801 -0.3203374608 -0.59653446846 0.030077777819 -0.023398403138 -1.1408302569 -0.15120997355 0.48574435939 
-1.32907137 0.18312817296 -0.25910979343 -0.57886390168 -2.4234235564 -0.67115639578 -0.12499912401 -0.55590171245 -0.55626140341 
-0.64619242005 0.13050657841 -0.24779309269 -1.1554564353 0.26058175154 -0.77628433419 -0.47150804285 -0.63210839464 -0.0027906848672 
-0.46629271285 -0.33421931439 -0.96336186039 -1.3597506556 -1.2662499407 0.03210247856 -0.531138497 0.40021327363 0.076158587619 
-1.1805990016 -0.03261125023 0.76117113506 0.12574523483 0.04572208128 0.35696068535 -0.62257091102 -1.3895380235 0.0071176957401 
0.36990668985 -3.7014082545 -0.28467993549 -0.24458304707 -4.1834564204 -0.27745485104 0.15339036889 -4.5987323692 -0.013768769335 
-0.53609082843 -1.933654148 -0.80831129082 -0.2018028058 -2.1798427285 -0.094920695856 -0.16802699778 -1.6287400985 -1.0562670351 
0.33144635998 -4.2021414812 0.18408451149 -0.87495829986 -4.3789983298 -0.051685392775 0.008283955245 -0.98230449984 0.1713469206 
-0.77280391028 -4.1135646336 -0.66778540872 0.14359719765 -4.6907459731 0.057785167926 0.22518206629 -4.8696038167 -0.086038223037 
0.10149718495 -4.4748097051 -0.21962743595 0.035171090011 -5.0456563968 -0.081941778963 -0.33197002625 -3.6688678445 -0.0044090397726 
-0.9305524874 -2.1803842723 -0.36618771062 0.14201507125 -4.7868593688 0.021467185718 0.18297067319 -2.7369762753 0.48735728154 
-0.061155139253 -2.8826051003 -0.036776997901 0.048882774293 -4.9099424223 -0.022073747937 0.0055858400765 -4.9900310022 -0.12079052367 
-0.042202529603 -4.802566048 -0.2336005905 -0.13308320869 -4.0262262367 -0.36414153894 -0.44603769683 -3.8720200024 0.31773185441 
0.0053319418586 0.17357593559 -0.072699403942 -7.5928232597e-07 1.2423640293e-07 0.0044291724394 0.00087506976927 -0.011289264288 -0.0086507803617 
0.0074788945665 0.0082420819345 0.031302568847 -0.039510299991 0.10137546653 0.001106636597 -0.10528643167 -0.0012835682753 0.024418629303 
0.031599593553 0.056426114508 -0.016611679404 -0.02938312747 0.04229908411 0.002192509094 -0.27710192524 0.20624369824 7.4684924609e-05 
0.003614793162 0.0013494165955 -0.036355890508 -0.039996364927 0.0003008904184 -0.076282147044 -0.23826398618 0.0043915956783 0.028535075214 
8.1994064489e-05 -3.9511205811e-12 -0.0041965249097 -0.027747395765 -0.0044281188347 0.004097322858 -0.06736056302 -2.3208946597e-05 -0.0021487631774 
-0.22983820989 -0.0058064841964 -0.1723446819 0.028620456491 0.00069370189032 0.030733440545 0.0092523512619 4.2024051572e-05 0.034673772042 
-0.14179652089 0.01676147691 -0.30247021947 0.04802331247 0.00067261267531 0.035688947989 -0.028336719049 0.003658088695 -0.17339711743 
-0.34071849412 -0.083218674121 -0.087286812184 -0.37804469179 0.21581319199 0.031778994192 0.0080952279313 0.0010549146058 0.01407644654 
-0.2323322433 0.00012490758262 -0.0054735453923 -0.039723160546 0.027293815412 -0.14229758029 0.013135413284 0.02342312352 -0.045223662732 
0.034229993378 0.0011424866255 0.02962770132 -0.039253052049 0.0014692598365 0.0071071553317 -0.38729716262 0.050481936419 -0.03276297458 
-0.33448528691 0.030517668754 -0.12250171063 -0.17846433989 0.027821310194 -0.039304893996 -0.2364086803 0.013216192026 8.1414833799e-05 
-0.057559556149 -0.047327067681 -0.1094238795 -0.27411578378 0.010972763023 -0.075374122187 -0.66190904453 0.0045116567633 -0.045527608645 
-0.35724323831 -0.30601519523 -0.2090572054 -0.12584530819 -0.00054922975274 0.033221477651 -0.0078584854438 -0.056560392292 0.085279613999 
-0.49310548535 -0.32734716184 0.046836979409 -0.35627902937 0.06158685045 -0.28250456397 -0.43464355089 -0.072197780434 -0.10338695526 
-0.6016277882 0.105732338 -0.19773324171 -0.19632948972 -0.015135806641 -0.34390329897 -0.2349837392 -0.040448439002 -0.48949381997 
-0.65511094778 0.15333213332 -0.41025611043 -0.51887927849 0.005793628053 0.003723183464 -0.41099636586 0.032661125419 0.25158511219 
-0.55988245678 -6.3812506934e-07 0.16755878918 -0.3412691649 -0.2960722593 0.18507633874 -0.13123525318 0.072448744453 -0.046136919754 
-0.42287294382 -0.20665089567 0.39199317694 0.050957518741 -0.1516522167 -0.12891504628 -1.0813689742 0.3879250103 -0.36983806047 
-0.36056834354 0.068948733339 -0.21390547965 -0.97060024844 0.33925993736 -0.24032229136 -0.94975233278 0.14991386711 -0.4502726743 
-0.69742111579 0.16055043583 0.21278099901 -0.55602773595 -0.059178310191 -0.00039153190138 0.24576890748 -0.30946705942 0.45992269246 
0.10030204823 -0.3417907692 0.30406989006 -0.29172283373 -0.03691831197 1.2341820344 -1.2423774392 -0.47595877097 -0.10482431496 
-0.38340295037 -1.8760724673 -0.4187140188 -0.58166851686 -0.40265840631 -1.2770189614 -0.6491136201 0.21086854785 -0.23345791652 
-1.4912229301 -0.054697440497 -0.47357694201 -0.96855297012 -1.0108323748 -0.44489630128 -0.82081542829 -0.369791731 -0.27099089693 
-1.0607155024 -0.46948256758 1.099407503 -0.36980904936 -0.14677165542 0.27377806161 0.42184071089 -2.9015642867 -1.0399392373 
-0.22524266676 -4.0929102451 -0.5855372981 0.067183450032 -4.8109294667 -0.056540567738 0.36999692112 -1.5373289091 -1.007642003 
0.32978102406 -2.1213085887 -0.82281551124 -0.54612325997 -3.8606306448 -0.55135825464 -1.2208334964 -0.67283528951 -0.59318850395 
-0.19565799873 -3.9107729095 0.7040222192 -0.14176437418 -1.1312360319 -0.29539597249 -0.68079163253 -2.2792510354 0.0154445511 
-0.31325754962 -2.3784174875 -0.36008478968 0.067858540772 -4.3377503553 0.25825226062 0.070024459473 -4.4518440062 0.41810316369 
-0.28831863129 -0.99685619036 -0.43377208198 -0.55208129157 -3.0852893412 -0.555293339 -0.14962981602 -3.6909849381 0.55066463091 
-0.53054337022 -2.976728719 0.24773033888 0.44785099515 -1.9108788017 -0.37112763418 -0.072084159958 -3.6877475595 -0.34309256274 
0.0045971888132 0.00020367061455 -0.036258184379 8.0819159934e-07 0.0040581994952 0.074968901751 -0.089931091046 -0.020946213478 0.00034863159987 
-0.00040598584069 -0.022364423069 -0.052674647784 -0.12057450491 0.0015712322897 -0.0024940149043 -0.12719761528 -0.00063241784108 -0.0026029474796 
0.00089500891863 -0.2168250426 0.10795887512 -0.031642229592 0.022378963028 3.3335051944e-05 -0.05917802242 1.6106502831e-06 0.03095529553 
-0.20500744557 -0.002935034196 -0.17824690864 -0.0052976567344 -0.00036167798963 0.05632962015 -0.1131593746 0.0013818561232 -0.0028547559677 
-0.055909189043 0.0019651389652 -0.18049791013 0.06094651894 -0.00015480386876 0.0070269595525 -0.11545247858 -5.2426825218e-06 0.16997302654 
-0.0029801508457 0.015503846388 -0.0015495506201 -0.26138645039 0.11915154073 0.0018214832282 0.032925735469 3.3793931269e-05 0.017116990545 
0.21161014178 -0.03901680785 -0.16245534701 0.0080873504871 0.029671180649 0.017765835576 0.090924949021 -7.8610606634e-05 -0.063870361542 
-0.14512050146 -0.050781718065 -0.14270221724 0.011506489663 6.2163815585e-06 -0.053950910678 -0.22111882492 -2.2857397527e-05 -0.0080892737174 
-0.22968996692 0.031769437448 -0.15296283543 -0.043407302748 -0.01013661474 -0.13988566764 -0.43309259633 -0.095261050446 -0.063446808789 
0.034861487141 -0.002068045887 -0.034215043777 -0.015719474197 -0.030993912539 -0.10306487942 -0.29869571036 -0.064951380574 -0.045341639058 
-0.32642453073 -0.028679728845 -0.0085464650456 -0.34071384581 -1.0843579505e-08 -0.0036558691577 0.021300618213 0.0048786197288 -0.026329725841 
-0.38740969712 -0.053999139724 -0.038732934131 -0.33763265883 0.19115343001 -0.46300893697 -0.10142005694 -0.00055164876982 -0.048234713069 
-0.19924477427 0.00028716416874 0.053070160277 -0.021561471829 -0.0010282877061 0.00020507246596 -0.36070166409 0.053772284742 -0.14068811155 
-0.73681051068 -0.068045688166 -0.19688309871 -0.40070097337 -6.8678730276e-06 -0.4122671628 -0.15090181559 0.1285733144 -0.28305787446 
0.023013341546 0.00050056937034 -0.050862763345 -0.2926178004 -0.028059765921 -0.26113802412 -0.42249579674 0.00016418246448 -0.052358819027 
-0.28037463742 -0.0090610476526 -0.00023770529453 -0.3916293817 0.12735858677 0.10170566713 -0.39083285906 0.0067605272462 -0.12866298276 
-0.46673038822 -0.019741786802 -5.3297239271e-05 0.25378852291 0.058967943888 -0.044140836267 -0.60358319079 0.15719176434 -0.48213795178 
-0.023143217367 0.10923649976 -0.037091382817 -0.52454678765 0.17129248062 -0.081427804517 -0.5019014216 -0.20175136184 0.025545613014 