# vtk DataFile Version 4.1
vtk output
ASCII
DATASET UNSTRUCTURED_GRID
POINTS 1274 float
0.273716 -1.29443 -0.0532507 0.273986 -1.30223 0.0958607 0.27954 -1.29493 0.317332 
0.157849 -1.31611 -0.211103 0.298478 -1.29135 0.178107 0.411622 -1.23461 -0.0671023 
0.381545 -1.29108 0.322074 0.470228 -1.2355 0.493098 0.51214 -1.24368 -0.00799158 
0.637004 -1.2533 -0.00557085 0.538937 -1.34674 0.187576 0.641365 -1.22253 0.434241 
0.852405 -1.27252 -0.151232 0.843546 -1.25445 -0.0829317 0.657783 -1.29641 0.158032 
0.75545 -1.27586 0.265886 0.696151 -1.27031 0.218763 0.793971 -1.20787 -0.0448627 
0.637081 -1.20749 -0.0559008 0.672403 -1.34643 0.00777977 0.715107 -1.19067 -0.0821342 
0.690719 -1.30815 0.278282 0.39078 -1.23446 0.281744 0.615281 -1.2721 0.22473 
0.912889 -1.23659 -0.0766048 0.29871 -1.24961 0.129028 0.657547 -1.20781 0.363604 
0.814241 -1.19493 -0.113136 0.921261 -1.31393 -0.000328436 0.823039 -1.22931 0.0380891 
0.971778 -1.20855 -0.0151306 0.656918 -1.2281 0.0467446 0.557683 -1.2189 0.378473 
1.08235 -1.22276 -0.287842 1.03354 -1.24155 -0.141545 0.503947 -1.22128 0.280673 
0.789922 -1.27875 -0.0125564 0.634944 -1.27375 0.285659 0.405227 -1.25067 0.13783 
0.951663 -1.2026 0.0593225 0.851381 -1.2267 -0.208426 0.798094 -1.23315 0.160139 
0.83822 -1.21213 0.108896 0.748285 -1.221 0.216052 0.90345 -1.24344 -0.00542699 
0.985116 -1.23817 -0.236568 0.891784 -1.25233 0.29155 0.886843 -1.2179 0.23019 
0.452309 -1.29928 -0.306724 0.167846 -1.33254 0.280789 0.145268 -1.35884 -0.0654292 
0.0370367 -1.33463 0.173628 0.286443 -1.34238 0.471643 0.25588 -1.33817 0.38498 
0.239863 -1.31329 0.164835 0.379663 -1.35338 0.285139 0.153313 -1.34834 -0.272901 
0.359438 -1.41001 0.0556366 0.611869 -1.28941 -0.213236 0.217805 -1.35345 -0.222184 
0.399583 -1.34728 -0.151385 0.371657 -1.35516 0.404609 0.39933 -1.29301 0.3946 
0.27817 -1.34831 0.208895 0.21345 -1.33824 0.00541924 0.485183 -1.26612 -0.187257 
0.413332 -1.36079 -0.0237589 0.583457 -1.34511 0.299856 0.433287 -1.28267 -0.142616 
0.304199 -1.28407 0.243076 0.552696 -1.36027 -0.0195135 0.376726 -1.27369 0.194416 
0.331413 -1.29837 0.06177 0.330606 -1.26195 0.445505 0.50863 -1.22742 -0.0833595 
0.623511 -1.4128 0.0996186 0.544132 -1.25113 -0.24072 0.212455 -1.28187 -0.175355 
0.568408 -1.35601 0.0414769 0.54138 -1.30132 -0.0340815 0.328132 -1.26213 0.297736 
0.451466 -1.2884 0.450321 0.579818 -1.33501 0.469927 0.446557 -1.28092 0.264207 
0.511117 -1.29942 0.291053 0.451976 -1.3611 0.112143 0.615642 -1.30362 -0.047689 
0.643774 -1.22729 -0.214009 0.972646 -1.28509 -0.28459 0.57035 -1.28628 0.172272 
0.475202 -1.28637 -0.25059 0.764615 -1.28926 0.34392 0.645568 -1.32732 0.220658 
0.577086 -1.23864 -0.0537395 0.999457 -1.26674 -0.0444713 0.741727 -1.25453 -0.0608732 
0.684796 -1.29046 0.0494551 0.876439 -1.34917 0.161975 0.60314 -1.25472 0.0798271 
0.780297 -1.23223 0.38804 0.790898 -1.24158 0.464707 0.545522 -1.26309 0.232885 
0.826078 -1.3595 0.207808 0.622038 -1.22502 -0.144778 0.687874 -1.23258 -0.033021 
0.553124 -1.24062 0.123824 0.732435 -1.23674 0.0213189 0.808465 -1.30048 0.178027 
0.82892 -1.25036 0.340743 0.681247 -1.26709 0.329867 0.809203 -1.22662 0.532537 
0.912582 -1.24736 -0.369598 0.769638 -1.30975 0.0489464 0.43772 -1.25601 0.192608 
0.723889 -1.22675 0.535002 1.1635 -1.22112 0.0118362 0.628957 -1.2663 0.530087 
0.734245 -1.22572 0.31765 0.704974 -1.24511 0.415582 0.578909 -1.24329 0.0154579 
0.958705 -1.29261 0.219484 1.10568 -1.23872 -0.167061 0.839017 -1.30529 0.0442153 
0.97698 -1.22602 -0.0923884 0.908346 -1.28982 0.0617697 0.616345 -1.23685 0.147512 
1.32158 -1.1972 0.52611 0.738702 -1.25643 0.161045 0.940278 -1.22523 0.19373 
0.952444 -1.20826 0.423003 1.21191 -1.26343 -0.182721 0.905137 -1.2321 0.0977846 
1.04511 -1.22583 -0.00800859 0.863861 -1.23343 0.171994 1.10064 -1.2582 -0.0321181 
0.963376 -1.26287 0.0318079 0.0866969 -1.41341 -0.246603 0.285898 -1.36072 -0.213054 
0.430063 -1.40919 -0.397639 0.0351686 -1.35958 0.3154 0.213251 -1.32114 0.482542 
0.0966716 -1.40799 0.156687 0.216636 -1.34413 -0.402017 0.500666 -1.31857 -0.348241 
0.0870916 -1.35983 -0.381492 0.493726 -1.34763 0.459758 0.251049 -1.27898 0.529061 
0.147108 -1.35435 0.37943 0.241078 -1.41179 0.297725 0.0966778 -1.35819 -0.0125354 
0.276987 -1.32004 -0.156619 0.0800982 -1.35882 -0.288962 0.472328 -1.35385 0.309876 
0.348645 -1.40768 -0.029268 0.129629 -1.34348 0.230562 0.213269 -1.33459 0.0981367 
0.219652 -1.29566 0.29144 0.320845 -1.29137 -0.295077 0.270946 -1.34801 0.0404113 
0.422517 -1.31832 0.166148 0.0826222 -1.29264 0.215264 0.515574 -1.30047 0.419185 
0.893273 -1.30018 0.533049 0.546868 -1.35556 0.420427 0.240859 -1.2949 0.228676 
0.318199 -1.35521 0.15696 0.318855 -1.35428 0.0925993 0.367295 -1.28843 -0.232393 
0.520262 -1.33282 -0.241393 0.492667 -1.2928 0.204015 0.54857 -1.22583 0.527673 
0.644614 -1.28735 0.408248 0.776959 -1.34084 0.46195 0.423809 -1.34428 0.228966 
0.676923 -1.41468 0.136491 0.594795 -1.22174 -0.399396 0.601205 -1.35847 0.188498 
0.854104 -1.22691 -0.31639 0.391249 -1.29513 -0.298441 0.828471 -1.29967 0.283794 
0.759163 -1.28959 0.419835 0.332846 -1.28447 -0.172132 0.571362 -1.27624 0.288767 
0.670146 -1.27249 -0.166635 0.49011 -1.24959 0.145379 0.879483 -1.29191 0.214227 
0.970415 -1.38759 0.0886244 0.535633 -1.28032 0.0564596 0.994875 -1.25508 0.443936 
0.648768 -1.33021 0.34107 0.941747 -1.29604 -0.0631884 0.675295 -1.20741 -0.270584 
0.725712 -1.22897 -0.145051 0.791358 -1.30415 -0.0806749 0.820831 -1.34981 -0.045316 
0.739917 -1.3183 0.178119 0.702919 -1.35503 0.138433 0.859707 -1.29911 -0.0262779 
1.00881 -1.24925 0.0867378 1.06208 -1.27482 0.0386594 0.912334 -1.25099 -0.14029 
0.786914 -1.28873 0.115014 1.10931 -1.28447 0.39436 1.00432 -1.24675 0.188867 
0.818554 -1.24328 0.229003 0.698555 -1.25825 0.110973 0.931683 -1.36134 0.216622 
0.857267 -1.28511 0.118978 1.19589 -1.36092 0.117154 0.947436 -1.35385 0.143602 
1.12377 -1.25892 -0.0979115 1.0265 -1.26075 0.275287 0.763164 -1.22433 0.0952146 
0.993159 -1.35378 0.196587 0.297589 -1.4153 -0.358832 0.199574 -1.37218 -0.327214 
0.0322034 -1.4135 -0.0345241 0.441403 -1.28068 0.531353 0.0339864 -1.41171 0.191283 
0.0880075 -1.32427 -0.106986 0.340234 -1.30685 -0.394474 0.0369044 -1.36216 0.0211609 
0.032648 -1.34528 0.48839 0.346518 -1.40639 0.198481 0.151819 -1.41314 0.444427 
0.323992 -1.34689 0.532516 0.0881458 -1.3952 0.227268 0.326623 -1.35885 -0.265464 
0.218225 -1.35069 -0.129145 0.248602 -1.41429 -0.202052 0.124977 -1.33763 0.152968 
0.311977 -1.29149 0.502043 0.091525 -1.33734 -0.219757 1.00554 -1.41418 0.472966 
0.234193 -1.40735 0.202623 0.218242 -1.34154 -0.0603588 0.403466 -1.35847 -0.282325 
0.15099 -1.32348 -0.00108988 0.582372 -1.41374 0.215282 0.469082 -1.4131 0.144584 
0.452534 -1.28904 0.341016 0.274008 -1.35691 0.322729 0.194432 -1.36248 0.157623 
0.311631 -1.34571 0.270383 0.802388 -1.4127 -0.226538 0.190296 -1.38803 0.264681 
0.356519 -1.34233 -0.0620676 0.161681 -1.30576 -0.120843 0.394471 -1.41526 -0.141495 
0.293202 -1.35423 -0.0873784 0.465564 -1.33979 0.396086 0.479269 -1.25485 0.394879 
0.297934 -1.35988 -0.0221671 0.358624 -1.34946 0.0162374 0.800763 -1.29742 -0.212158 
0.379022 -1.36167 0.155162 0.336272 -1.3453 -0.179566 0.352696 -1.29994 0.131961 
0.377666 -1.29363 0.256137 0.347478 -1.33268 0.211596 0.526133 -1.2357 0.436636 
0.447878 -1.2951 0.108911 0.734775 -1.25906 -0.210303 1.05807 -1.36698 -0.1477 
0.310403 -1.30423 0.00394908 0.444002 -1.3049 -0.0197921 0.836508 -1.41477 -0.140694 
0.613581 -1.36226 -0.0114205 0.650064 -1.36314 0.275142 0.501669 -1.35069 0.244409 
0.518469 -1.26052 0.345278 1.14795 -1.368 0.380301 0.628696 -1.36876 -0.0745106 
1.12045 -1.28369 -0.219158 0.725195 -1.29664 -0.11625 0.853747 -1.3246 -0.107762 
0.687 -1.36358 -0.0514948 0.746507 -1.34155 -0.00647736 0.897907 -1.35459 -0.0555919 
1.04994 -1.23608 0.4675 0.635911 -1.31484 0.0923158 0.841218 -1.41501 0.254205 
0.652629 -1.25786 -0.0944485 0.895591 -1.35378 0.089735 1.09826 -1.31886 -0.000886282 
1.01075 -1.31104 0.00851905 0.813311 -1.37065 0.0466033 0.753605 -1.33951 0.101839 
0.695771 -1.2982 -0.0350978 1.05058 -1.34982 0.155024 0.854851 -1.41217 0.0912251 
1.18037 -1.23135 0.410094 0.994503 -1.28999 -0.106203 1.09769 -1.40835 0.173045 
0.963336 -1.37554 -0.0367602 0.971583 -1.31635 0.0849773 0.859684 -1.20924 0.456006 
0.0341698 -1.37741 -0.227595 0.0314944 -1.41421 -0.173274 0.0354918 -1.41021 0.467895 
0.0724517 -1.41424 0.307619 0.0839622 -1.37148 0.528368 0.0998961 -1.41553 0.479549 
0.0769631 -1.41064 -0.339128 0.166921 -1.39481 -0.39495 0.384424 -1.36054 -0.403686 
0.0336248 -1.41208 -0.285854 0.0514141 -1.41294 0.0665847 0.264898 -1.4091 0.470978 
0.0356105 -1.41055 0.36383 0.240095 -1.4087 0.370369 0.142816 -1.41182 0.527322 
0.301631 -1.35418 -0.332167 0.142896 -1.41429 -0.331471 0.145818 -1.41471 -0.269135 
0.640505 -1.41014 -0.320248 0.424291 -1.41293 -0.237062 0.115925 -1.41367 0.0605569 
0.097474 -1.34394 0.422131 0.392135 -1.33181 0.529311 0.109642 -1.35189 0.315488 
0.500988 -1.4062 0.400777 0.175058 -1.37136 0.0534897 0.310248 -1.40789 -0.16835 
0.292562 -1.41419 0.0897202 0.209866 -1.4093 -0.0930852 0.355329 -1.34884 0.469527 
0.316769 -1.3223 0.415516 0.291551 -1.40986 0.249617 0.713821 -1.35035 0.5186 
0.207273 -1.35182 0.331957 0.411169 -1.35006 0.349651 0.453633 -1.34856 -0.224251 
0.383539 -1.35577 -0.218965 0.0655212 -1.35876 0.109081 0.455376 -1.40706 -0.173046 
0.243314 -1.3527 0.267279 0.263711 -1.35818 0.12853 0.420661 -1.35376 0.450528 
0.336714 -1.3209 -0.122278 0.457356 -1.41043 0.0498393 0.629111 -1.28051 -0.372396 
0.523627 -1.29204 -0.290468 0.569942 -1.41475 0.0649225 0.519038 -1.28588 0.489466 
0.648227 -1.41098 0.225359 0.550503 -1.35133 -0.296595 0.456631 -1.41397 0.209169 
0.680635 -1.36145 0.39475 1.07279 -1.29125 -0.269937 0.463094 -1.28395 -0.0797636 
0.428108 -1.34146 -0.0861389 0.501936 -1.32636 0.0149197 0.438346 -1.34184 0.0377872 
0.52945 -1.33102 0.355558 0.571517 -1.28969 0.535691 0.942804 -1.25469 0.531367 
[...]
POINT_DATA 1274
FIELD FieldData 10
VELOCITY 3 1274 double
-3.8449911684e-05 -2.2881419679e-05 -0.00013157162481 -5.1535091748e-05 -2.7809967024e-05 7.1453439237e-05 -0.00031734232498 2.684696281e-05 0.000696763948 
-4.9068544449e-05 0.00015833655048 -4.2213665895e-05 4.1031966238e-05 6.0014893121e-05 0.00010616521644 -0.00010610584629 4.4655660287e-05 4.7831454158e-05 
-0.00024168444889 -9.1133637235e-06 7.7371159163e-05 -0.00035389774915 2.241340944e-05 -0.00016940615991 6.1739010765e-05 7.4760001981e-05 -0.00027245356457 
4.2824769942e-05 -9.6531739219e-05 -0.00013165936787 -0.00010644300089 3.5082191403e-05 -2.4216391909e-05 -0.00028551655301 -0.00020160701885 1.6811134612e-05 
1.7112885665e-05 -0.00010510756868 4.0613829657e-05 -9.4345353416e-05 1.0359084475e-05 -1.6737126232e-05 -0.00014078022791 3.7282963147e-05 8.6858643816e-05 
-6.0100254532e-05 4.1699190353e-06 1.8460820162e-05 1.6613986929e-06 3.3606528457e-05 3.4903154183e-06 -0.00027804879086 -0.00012636082013 -5.0457087175e-05 
4.521058094e-05 -0.00018410631377 -0.00022080543366 -1.4355190019e-05 9.2620112352e-05 0.00011599623987 0.00022159957916 -0.00011481545109 -4.5794187552e-05 
1.7871739168e-05 -6.9773673422e-05 -6.0315802816e-05 0.00013434314554 -0.0072415573444 0.0167183607 -0.00013686208334 -3.9457215332e-05 0.00013404211777 
-8.7336016714e-05 -3.6011254111e-05 0.00024713356257 0.01742615654 -0.0054002082306 -0.0044426660478 -0.00010675315122 -0.00015284813664 0.00012488954465 
-0.00027560689973 -7.3106135989e-05 -3.8310795157e-05 -5.6694357533e-05 -8.9591356751e-05 0.00011567834025 -0.00028927489204 -5.8223680636e-05 -9.2552559235e-05 
-0.00016378350741 -2.7013934593e-05 0.00025600392591 3.4024836723e-05 6.7264572744e-05 -0.00018936372951 -0.00027238696219 -0.00024257364484 7.5538271666e-05 
4.8594781316e-05 -0.00020407672074 -5.8266427152e-05 0.00014583134424 -2.5209360144e-05 5.2906923523e-05 6.4677803544e-05 -0.00017966395717 -1.4596411333e-05 
-0.00012436261837 -0.0001555652662 -0.00016191651246 -8.5259306717e-05 -0.00020265442564 7.3671149768e-05 -3.9687002939e-05 -0.00011820798945 -6.3295336589e-05 
-0.0014489352511 0.00034138239551 -0.0017962514524 -4.0145960665e-05 -0.00017992173455 3.9130764002e-05 -6.3174461564e-05 1.7819702611e-05 -7.3260115659e-05 
-0.00019799674002 5.2363245957e-06 -0.0001516050747 -4.5801963768e-05 2.3166194027e-06 -1.463527209e-05 -0.0001445959439 -3.9379666756e-05 0.00030527613889 
0.00035610847958 -0.00027371522469 0.00020005646446 -3.616387717e-05 -0.00020680265097 0.00039079512337 -0.00039462277099 -0.00019659894292 0.00043649732472 
-0.00023234956682 -9.7440971991e-06 -5.6237794862e-05 -4.3866707921e-05 -9.6642841078e-06 4.8585429156e-05 4.3424438737e-05 -9.4282789821e-05 -2.2958233593e-05 
1.4505185447e-05 -0.00036943464955 0.00010626294915 -0.00021496190897 -5.3820987693e-05 -9.9863985871e-05 1.8806959354e-05 -0.00011339995238 6.169253162e-05 
-0.00037343882872 -0.00018695140821 0.0024647253837 -0.00018816844683 -8.1042171185e-05 -8.413300953e-05 9.7298642267e-05 -5.9686905539e-06 6.8289122674e-05 
-2.0748458364e-05 -7.9954683017e-06 1.8470062034e-05 -0.0001602828856 -1.3099789977e-05 0.00011157520027 -0.00012712034866 -2.0492713923e-05 0.00025585347572 
-0.00010760749815 5.1046506338e-06 3.349420547e-05 -0.00011376233568 -0.00011285586197 0.00022247227649 -0.0002984041995 -5.3879009269e-05 -2.3376982175e-05 
-0.00015128874903 4.8105880184e-05 2.0148477856e-05 -2.4407370728e-05 -0.00020235599613 0.0002087049835 -7.1478668726e-05 -0.00012034653154 -5.9838705115e-05 
-0.00025919750406 1.2416302571e-05 -6.0705677991e-06 -5.1215911658e-05 6.5948600146e-05 0.00012205131414 -0.00012170654065 1.2707226736e-05 -6.2605734482e-05 
-0.00025902212067 5.0330134069e-05 0.00012505046185 -5.6230079732e-05 4.955070651e-05 0.00015073892748 -0.00022532991595 -5.924633974e-05 3.0807443828e-05 
9.773885185e-05 -0.00010028146504 -0.00011198495323 -0.00017345014767 0.00010217243966 -1.9460826098e-05 0.00010774724288 -0.00010750950533 -0.00018184424126 
-0.00012989017858 2.4319646653e-06 9.1308965697e-05 -0.00017318136269 -0.00013394998537 8.7224208592e-05 -6.3634321714e-07 -3.0716479102e-05 0.00011164004471 
3.2262295344e-05 5.2524225444e-05 0.00016466393394 0.00041613445387 0.00010097806561 9.6200423986e-05 -0.00039848345118 -0.00013426673345 0.00025748595842 
-0.00025350043502 -8.0821754049e-05 -1.6013458593e-05 -0.00022037161191 -0.00010263001299 0.0001173715362 -8.4741545757e-05 -5.0215210972e-05 6.7883615324e-05 
-6.0236593796e-05 -0.000210929653 -0.00015012259244 -9.1169094146e-05 -4.9068414246e-05 -0.00014507732339 0.00028350138466 -0.00018976539514 -0.0001256333162 
0.00017281003406 -0.00015387498971 3.7384350608e-05 9.1957441302e-05 -0.0001166843383 0.0001244903327 0.0001081460547 -0.00022526823396 -5.3408440461e-05 
-0.00020972410045 5.9709639817e-05 -5.5533992144e-05 -2.7703646814e-05 -3.4858237056e-05 7.5272967554e-05 -9.8683163379e-05 -1.1862544391e-05 6.1980274404e-05 
7.322535291e-05 -0.0002718590036 -0.00018279074214 1.7749115086e-05 6.4828248392e-05 0.00020899148295 -7.2534026462e-05 -0.00030370912798 -0.0002478496292 
-2.0948901259e-05 8.9223566911e-05 -3.7670941898e-05 0.0001335310058 -9.0236139926e-05 0.00014966403886 7.2905746897e-05 -3.9467539294e-06 -0.00014042566306 
0.00026099945888 -0.00011050573877 7.2030794857e-05 -0.00020847868739 9.0604623289e-05 0.00011612458919 3.9452861986e-05 -3.813680389e-05 -0.0001819371508 
-0.00022157909238 0.00010949906988 0.00016475520001 4.1411672531e-05 -0.00026011811222 1.3648888657e-05 3.9429766797e-05 -0.00013361798379 -0.00014643463799 
4.5680907107e-05 -0.00034220718536 -0.00011911177939 3.6218378044e-06 3.2397985144e-05 -0.00012909641362 4.7449258399e-05 3.7090643931e-05 -0.00017305112286 
0.00022226467177 -0.00024741715011 1.1498393553e-05 -3.8748486173e-05 1.0142102857e-05 -0.00010720809343 0.00025830975989 1.0607354071e-05 7.0725665873e-06 
5.2689491704e-05 -0.00032120374174 -0.00062670786337 -9.6064959046e-05 -0.00027204847792 5.2748646426e-05 -0.00017827080198 -0.00016866039263 -2.670839788e-05 
6.3291654228e-05 9.4612784107e-06 1.6127421662e-05 4.3831964771e-05 -0.00012025258877 -0.000203033114 -2.7199011683e-05 -0.00013523333126 2.3846763613e-05 
3.3732221707e-05 -4.9336310145e-06 7.4194506378e-05 -0.00014960865446 -0.00016625533182 0.00039395178733 3.9962216297e-05 -0.0002545498756 -0.00017334858578 
0.00013805378303 -0.00041580281524 -0.00018496220204 0.00012110925429 1.4676183954e-05 -0.00025325835493 -0.00019592700377 -2.4109225106e-05 -6.9976901965e-05 
-0.00010475276614 -9.676445532e-05 9.9276097929e-05 -0.00014612418538 2.1711982546e-05 8.8602243082e-05 -0.00011513570693 -3.6798979578e-05 -0.00011791585665 
4.6208195276e-06 -1.3089346449e-05 -0.00011192436576 5.0782902072e-05 -5.0979144741e-05 -4.3440441764e-05 -0.00049994796098 -0.00030848526632 0.00036054623062 
-0.00045753552647 -0.00019427120898 8.8770782263e-05 0.00010132553513 -0.00020959547832 -0.00023073296904 -0.00010996094156 0.00022486627941 -0.00018728600559 
-0.00013229633067 -0.00011195152877 -4.6017841792e-05 0.0002380203608 -0.0002396778215 0.0001810828554 -0.00037783243039 -0.00015634367576 -0.00034732710026 
-3.2887122862e-05 -0.00020352748303 5.1594707859e-05 -4.7031990914e-05 -1.5045219288e-05 -0.00018206856414 -8.3592580882e-05 3.5493826966e-05 -0.00010674177039 
1.5490212624e-05 2.2505881898e-06 4.7552722502e-06 -1.2502997193e-05 4.3570473048e-05 0.00019304064383 -2.0929340277e-05 -1.8272605318e-05 -2.9931159861e-05 
-7.6868590372e-05 2.8435470267e-05 -1.8019492935e-05 4.1631064808e-05 2.11407202e-05 6.4310153418e-07 -0.00029064007657 4.5162877521e-05 -1.6349878911e-05 
-2.5673197852e-06 1.1408087508e-05 -1.7120463071e-05 -2.1849358202e-05 3.859361945e-05 -0.00018349895506 9.5076689103e-07 -3.2765842909e-05 -7.8415242785e-06 
7.7107746991e-05 -1.0550807863e-05 5.0835527971e-05 -1.2180344619e-05 -2.7883248164e-05 6.0116148531e-05 -3.5216521589e-05 -7.4745103201e-05 -7.5928151083e-05 
-4.1834339535e-05 -9.215373927e-05 -1.138266002e-05 -5.954683039e-06 6.3961237966e-06 -3.1055746082e-05 -0.00030397207584 -4.1321261376e-05 -5.738884319e-05 
-0.00010599230184 0.00014231019736 0.00014987039583 5.7634740782e-06 3.6451421981e-05 -3.29431608e-05 -0.00010092424495 -9.5525803737e-06 -6.514524801e-05 
-3.9697613262e-05 -2.7062323547e-05 8.5858685179e-05 -0.00023784496651 1.1787243182e-05 0.00011688537131 4.3505865579e-05 -6.6671547561e-05 2.6089658438e-05 
2.3970412705e-05 -1.4081088794e-05 -0.00010957932451 -0.00012282595573 -0.00010168319641 -5.2320400694e-05 8.9545328825e-05 -0.00025100047308 -0.00037026798041 
-4.241838132e-05 -9.2903118599e-06 5.2240401489e-05 0.00011827225998 -0.00012834340639 -4.8867103603e-05 -0.00024318391057 4.328894427e-05 -1.7447338838e-05 
-0.00010492542511 -1.1405460091e-05 0.00011241573671 -2.6054292617e-05 7.1071832717e-05 9.4187191251e-05 -0.00011452333951 -5.5337340435e-05 3.8090095524e-05 
-1.5586254113e-05 -0.00017789648327 -4.2380900491e-05 -8.9940815117e-05 -2.906592998e-06 4.2918124256e-05 0.00011449050303 -8.1465127533e-05 -7.5299883074e-06 
-9.8309511609e-05 0.0001004221429 -1.3617884992e-05 -0.00018104271337 0.00014777590929 0.00026063261602 -0.0002209617435 8.4544059504e-05 -8.7837036947e-05 
-0.00013348562844 1.3967392926e-05 3.6433246747e-05 -0.00089104290311 -1.1883257162e-05 1.5818981437e-06 -8.0660366157e-05 8.3267744691e-05 1.9176849097e-05 
0.00018628055935 -0.00020350699137 0.0001901062006 -0.0002693876316 -4.2983194666e-05 -3.9937704634e-05 -0.00010309007791 -6.1264336377e-05 -7.0574627257e-05 
2.477211672e-05 2.993894904e-05 1.3221477778e-05 -9.8076811227e-05 -3.158050824e-05 3.3410271959e-05 -0.0001932775559 -4.4591190772e-05 -5.5988857822e-05 
1.3137615746e-05 -0.00027353332831 3.7150834207e-05 4.6423996131e-05 -0.00010753564101 -9.4091094651e-06 0.00011568219905 1.3387531436e-05 5.1328764036e-05 
-2.4220876203e-05 0.00016663218159 5.5647596414e-05 -1.31532808e-05 -1.7172765497e-05 2.8018886145e-05 0.00031195508812 -0.00028130615974 -0.00015379638497 
6.5219911687e-06 9.90152621e-06 4.9837604112e-05 5.3755761392e-05 -9.2593823874e-06 0.00019947098721 -0.0006743866823 -0.00039863561598 -0.0017713264632 
-7.7909195746e-05 -0.00010140178488 -9.2685642616e-05 -0.00011347638056 2.8144817058e-05 1.6793768492e-05 7.123868034e-05 -2.6581953175e-05 -0.00010277151593 
6.8089698725e-05 -0.00011608273862 -7.1993362487e-05 -0.00027118203679 -2.8092302191e-05 9.4583023529e-05 1.1880361634e-05 4.8610767344e-06 0.00011500841054 
7.1509736533e-05 -2.6865616734e-05 -0.00014238791088 7.8239814135e-05 -0.00011089932165 -0.00011735418504 -3.7585834834e-05 -8.2975531998e-05 0.00025930780924 
-5.1664479926e-06 -3.469301243e-05 -0.00010803427722 -0.00019101062052 -0.0012407122956 -0.0010129333486 -7.009127734e-05 -9.0085239835e-05 9.380745993e-05 
-5.0037301224e-05 -6.7090480199e-07 9.2985589053e-07 -8.7509192073e-05 -4.4355012502e-05 7.2272905962e-05 -0.00024852487269 -0.00022215859864 -0.0003115292848 
0.00011655687607 4.2105087745e-05 -0.00019314121427 -8.451566097e-05 -0.00013310408636 0.0001228768794 0.00012910575343 8.5323954862e-05 0.00012354319385 
3.8391148673e-05 -0.00018803205497 -0.00023785359901 -4.807837449e-05 -0.00015885946008 6.1902894035e-05 -8.0749464401e-05 -9.8903243843e-05 -0.00010147909911 
-0.0001649047902 -0.00036000775467 -0.00014243301359 -0.0002231396322 2.979951343e-05 5.4340485195e-05 1.6983014718e-05 1.0222503586e-05 7.6798216159e-06 
1.2511200875e-05 -1.59661715e-05 -6.8357697061e-05 -7.4183005038e-05 -2.272483183e-05 -1.9878816993e-05 2.702261909e-05 -0.00022511941418 0.0001280493992 
3.9108732585e-05 -0.00018521814583 -3.3678095365e-05 -5.6774317084e-06 -2.1894530313e-05 -6.6769890967e-06 2.6536998489e-05 -2.338991031e-06 -1.6624454738e-05 
-5.2429160812e-06 5.4499295964e-05 -0.0001409703485 -0.00014716339886 -4.3666720911e-05 0.00011506092736 -0.00028095952896 0.0002148683296 -0.00018652708884 
-9.3993692301e-05 -2.9565173257e-05 3.0505994296e-05 -0.00011419134838 0.00010984716697 0.00011001207373 -0.00010257144025 -0.00010374848903 -0.00025699047814 
-1.8036076036e-05 -7.6689341616e-05 0.00011763212211 -0.00061799765893 7.397538744e-12 0.00080473983807 -0.00018916006642 7.4793292009e-05 7.9894908891e-05 
-1.4710523726e-05 -5.81638768e-05 -5.3856692212e-05 -4.3230124597e-05 0.00011667622876 -9.4871459409e-05 -0.00013092622332 -2.2768022101e-05 3.8479023551e-05 
-0.00012738654621 7.6342521391e-06 -0.00012863146469 0.00013125526156 -0.00018012449374 0.00015070540935 2.9319347662e-05 4.8093486287e-05 4.160266928e-05 
-3.1218735199e-05 -0.00018990989622 -1.2963499997e-05 -1.4039157596e-05 3.0053735272e-05 0.00015610725022 -0.00018374178744 4.8909619958e-05 -1.055064248e-05 
-0.00027160151777 -3.5590520617e-05 9.207924042e-05 -0.00019694533148 -5.9157844404e-06 7.1457243202e-05 -0.00019084967684 1.2525103982e-05 -8.52098794e-05 
-0.00019755472319 -3.8664261805e-05 5.3922997495e-05 8.721661112e-05 -1.9540208599e-05 -0.00015230384126 4.8796546747e-05 -0.0001835660845 -3.9253009617e-05 
0.00011351513287 -7.504759223e-05 -6.4095812588e-05 8.7386390222e-06 -4.4621567892e-06 0.00010072319947 9.0442002881e-05 4.0576342982e-06 0.00027412782461 
4.4914186306e-05 -6.6058088431e-05 2.9113574511e-05 -0.00017789128088 -7.401770095e-05 -0.00010658843101 -0.00010194964079 -0.00010217931308 9.0564317582e-06 
-8.1376084026e-05 -7.017400707e-06 8.3603227148e-06 -0.00013950335642 2.2345140042e-05 8.3707432412e-05 0.00011645575462 -0.00021619095528 -3.2777537394e-05 
-0.00013546021635 5.4176246329e-05 0.00010195964138 -4.8174808526e-05 -0.00018419976601 0.00012868086226 -5.1518476642e-05 -7.9443402852e-05 -2.5162610249e-05 
-0.00015869459958 1.793742016e-05 9.1421929328e-05 -0.00013940132034 -4.8209023138e-05 0.00011564295493 -0.00022185135568 -0.00014014595217 0.00014924848215 
-2.8885577115e-05 -3.6049675811e-05 -9.4520415372e-05 5.9546995485e-05 -0.00026676193873 2.135521735e-05 -2.0405168536e-05 -4.5055424456e-05 3.0792862036e-05 
-0.00019008307117 3.6350626701e-05 -1.5326317748e-05 -8.7348997364e-05 -6.566177497e-05 -0.00011244561111 2.3543926966e-05 -5.0095166236e-06 6.8634780961e-05 
-3.7702875005e-05 -7.7345479938e-06 -0.00016465611646 -6.5825269934e-05 -0.00010966354514 0.00019391112813 -0.00019721149728 -8.9120737573e-05 -1.157627145e-05 
-0.00024101807822 -0.00028357878497 1.5927028786e-05 -3.5152042433e-05 0.00012097544939 -0.00017209895517 3.4492894241e-05 -0.00024359902901 -0.00020117396405 
7.4596334529e-05 -0.00012845849383 -0.00012571701504 6.8260308058e-05 -0.00023141682935 -0.00036515471735 -0.00010827467839 -2.975629299e-05 0.00018837238875 
-9.8071843324e-06 4.6805365802e-07 0.00010405236138 -0.00034030155547 -4.4981771784e-05 6.5032202185e-05 -4.2681399008e-05 3.8670268583e-05 7.645153015e-05 
0.00021093769299 -6.0670609567e-05 9.8400440703e-06 1.9927745376e-05 -3.4523494347e-05 -5.9608640415e-05 -0.00028273505727 1.2077172881e-05 2.4967138635e-05 
0.00017319100151 -0.00024995689226 -6.7665745184e-05 -0.00011507433196 2.3072615415e-05 1.5571767602e-05 4.6733301104e-05 -0.00024335474784 -0.00022892926085 
1.1124921341e-05 -0.00012583807817 -4.0100108651e-05 0.00016676323787 -8.516151447e-05 5.3411520931e-05 -0.00015010111873 -4.2211460144e-05 0.00024544240893 
-0.00017731251883 -0.00017050907444 -0.00023695752021 -5.9355288346e-05 0.00011244546629 -0.00019644775938 -9.9635044106e-07 1.602696051e-05 0.00017101028887 
-9.5236149206e-05 -0.00011945805539 -0.00026794072662 7.719699789e-05 -1.9338057049e-05 0.00026307795854 -0.00052561537865 -2.0249222217e-05 -9.1214259086e-05 
-5.6115351007e-05 -2.515516333e-05 8.9950416303e-05 -0.00012154427709 8.0968713135e-05 -1.5524389931e-05 0.0087421692055 -0.00028609671084 -0.0011977892651 
-1.9130073017e-05 0.00013032883127 5.2952493626e-06 5.3302341112e-05 -3.0545995721e-06 -0.00020669077694 -1.6800241418e-05 -1.1241347319e-05 1.5305125418e-05 
-2.8662470211e-05 -1.6274155253e-07 0.00023230290183 -0.0001771082408 8.5898832374e-05 -3.2664950309e-05 0.00014145063351 1.5730938104e-06 0.00022003886041 
6.7201962831e-05 1.6981351398e-05 -0.00013838322503 -3.0851246375e-06 -1.4796227781e-06 9.0071378064e-05 1.1180760695e-05 4.062251558e-05 -1.1706985416e-05 
2.8190911726e-05 2.6882444463e-05 -6.6473638372e-05 -0.00010455716201 3.1263025186e-05 -4.5054361612e-05 -0.00018800251197 1.2328280424e-06 5.8493985025e-05 
3.0896748143e-05 -6.0451528537e-07 0.00015246714448 0.00011358646514 1.0381842351e-05 0.0001216188684 -0.00021235489337 1.0560736723e-07 -0.0027014535301 
-0.00017841061039 -4.4907052619e-05 0.00014304610923 5.9028246125e-05 1.6723576823e-05 3.7264147e-06 -4.1138362495e-05 3.7384076437e-05 1.8037234365e-05 
-0.0001349043027 -1.0198381874e-05 -4.4026117383e-05 2.7884672178e-05 -3.8899021942e-06 -3.1902900176e-05 -0.00011898598651 2.4014469189e-12 -0.00011503410506 
1.1340757865e-05 1.7488546975e-05 1.3839442209e-06 -8.9525647439e-05 -1.0277681546e-05 -1.4523437669e-05 -2.1789592802e-05 2.2009987408e-06 0.00011500915097 
5.9751702112e-05 1.066004484e-05 -0.00025235619133 -1.6568392506e-06 -8.1503042272e-05 -0.0001339650263 -1.6346395134e-05 9.6532865858e-06 3.6719682677e-05 
2.6943164565e-05 1.5942945086e-05 -4.9856931415e-05 -7.4273744663e-05 -0.00019335200913 1.1158460225e-05 -0.00018757165543 -4.8240364431e-05 7.9603635105e-05 
-3.0874779134e-05 6.843028694e-05 -4.6006888779e-06 -0.00016171239579 1.8474972776e-05 -6.7382064615e-05 4.0624778532e-05 4.9861281702e-05 0.00015550005149 
-0.00012871816948 5.7353323064e-05 0.00013500403185 -0.00037156584258 3.8340115006e-05 6.9407844724e-05 2.3999438385e-05 1.015801403e-05 7.9384093867e-05 
-0.00010085044931 -6.4972604419e-06 -0.00012410497377 -0.00010213927995 1.4037872254e-05 -8.7682481877e-05 -0.00011984510978 -5.1166426743e-06 1.5416772139e-05 
-0.00014386444092 1.5308292648e-05 5.6754744335e-05 -0.00022319357361 1.5886322982e-05 0.00011223081035 -0.00015888814129 -6.0421192315e-05 8.8918187836e-05 
8.5127578774e-06 -5.4421125657e-05 -2.4643502973e-05 -0.00012700588378 -0.00019959768182 0.00019147698992 -0.0010394030016 -0.00074464512282 -0.001398807986 
-0.00012948090097 -3.9583320947e-05 -1.5676025656e-05 1.4985295449e-05 -2.9310395189e-05 -2.5130675939e-05 -0.00035795946811 -2.4487591408e-05 0.00029775642023 
-0.00028084540483 5.8059563449e-05 0.00013671143347 -1.6794819881e-06 8.3259079984e-05 -0.00014524986407 -0.00013119130144 -0.0001308281618 -4.9217972256e-05 
-0.00013008474334 -9.4791398018e-06 0.00011883624651 -0.00012184978297 -0.00013976581901 0.0001079084974 -0.00019262285519 0.00012154589629 -0.000163801862 
-0.00010945161945 2.2631776335e-05 6.2255499453e-05 0.00010113780614 3.6071308972e-05 -4.883994115e-05 -1.3509426515e-05 1.8614465846e-05 -7.5593437944e-05 
-0.00021667669408 -0.00029890117849 -9.1431959354e-06 -5.8636556714e-05 -0.00011800275184 5.144026589e-05 9.4699348115e-05 -0.00020630472023 -2.0176790247e-05 
-1.9156692819e-05 -1.3870919981e-05 0.00012070279664 -0.00011094116178 -5.4734682586e-05 -2.7003599682e-05 0.00027368485441 -0.00010992452211 -0.00011408567421 
9.8326810021e-05 -0.00022905253432 -0.00033741637792 -0.00022769669989 -0.00031797249487 -0.00021840625831 -0.00014936955739 -9.5477646971e-05 5.1254875057e-05 
0.0001189373484 -5.8526950376e-05 -0.00040537291817 -0.00011126941306 1.8831009279e-12 4.984577673e-05 8.0647149302e-05 -6.1433199956e-05 -0.00019827472507 
-1.9072930166e-05 0.00013738348648 -8.0747110155e-06 -0.00030526464104 -0.00017362819147 0.00017626433332 -2.1608222226e-05 2.5991031326e-06 -0.00012988575025 
-4.5175242984e-05 -6.8770871677e-05 0.00016658099593 -9.6540766733e-05 -0.00013123363696 -9.0446579897e-06 -0.00010096740047 -1.5819435737e-05 -2.5958970178e-05 
0.00021605660499 3.5417805449e-05 -5.2470365741e-05 4.846848285e-05 4.1059909962e-05 -4.3154445909e-05 -8.3895886177e-05 4.6576470233e-05 -3.6767168459e-05 
0.00017718481942 -0.00015135560068 0.00039615900695 -0.013002981267 3.6985809171e-13 -0.0011329227269 -3.463800642e-05 -2.4331180351e-05 0.00046363295537 