# vtk DataFile Version 4.1
vtk output
ASCII
DATASET UNSTRUCTURED_GRID
POINTS 1274 float
0.273712 -1.29442 -0.0532567 0.273991 -1.30223 0.0958566 0.279564 -1.29493 0.31728 
0.157853 -1.31612 -0.21112 0.298454 -1.29135 0.178071 0.411631 -1.23461 -0.0671116 
0.38157 -1.29108 0.322067 0.470268 -1.2355 0.49312 0.51214 -1.24369 -0.00796652 
0.637002 -1.25329 -0.0055608 0.538946 -1.34674 0.18758 0.641398 -1.22252 0.434222 
0.852407 -1.27251 -0.151234 0.843556 -1.25445 -0.0829302 0.657796 -1.29641 0.158026 
0.755454 -1.27586 0.265889 0.696157 -1.27031 0.218764 0.793995 -1.20786 -0.0448565 
0.63708 -1.20747 -0.0558821 0.672407 -1.34643 0.00777445 0.715093 -1.19066 -0.0821293 
0.690721 -1.30815 0.278287 0.391293 -1.23427 0.281939 0.615294 -1.27209 0.224723 
0.912899 -1.23658 -0.0766291 0.298579 -1.24823 0.126821 0.657553 -1.20779 0.363581 
0.814263 -1.19492 -0.113131 0.921273 -1.31393 -0.000338907 0.823062 -1.2293 0.0380968 
0.971793 -1.20854 -0.0151519 0.656918 -1.22811 0.0467595 0.557705 -1.21887 0.378462 
1.08234 -1.22274 -0.28784 1.03353 -1.24155 -0.141548 0.503944 -1.22126 0.280668 
0.789936 -1.27874 -0.0125487 0.634953 -1.27374 0.285653 0.405229 -1.25066 0.137832 
0.951573 -1.20257 0.0592448 0.851383 -1.22668 -0.208427 0.798097 -1.23315 0.160143 
0.838232 -1.21213 0.108907 0.748282 -1.221 0.216058 0.903465 -1.24344 -0.00545585 
0.985076 -1.23814 -0.236591 0.891789 -1.25232 0.291547 0.886871 -1.21789 0.23018 
0.452328 -1.29928 -0.306713 0.16785 -1.33254 0.280786 0.14526 -1.35883 -0.0654319 
0.0370367 -1.3346 0.173619 0.28646 -1.34238 0.471649 0.255886 -1.33817 0.384976 
0.23984 -1.31324 0.164703 0.379674 -1.35338 0.285144 0.15285 -1.34831 -0.273306 
0.359432 -1.41001 0.0556345 0.611881 -1.28941 -0.213244 0.217813 -1.35345 -0.222212 
0.399589 -1.34728 -0.151393 0.371669 -1.35515 0.404599 0.399364 -1.29301 0.394603 
0.278179 -1.34831 0.20889 0.213458 -1.33821 0.00540863 0.485192 -1.26611 -0.187249 
0.413356 -1.36079 -0.0237638 0.583465 -1.34511 0.299852 0.433296 -1.28268 -0.142613 
0.30422 -1.28409 0.243038 0.552699 -1.36027 -0.0195265 0.376734 -1.27369 0.194416 
0.331421 -1.29838 0.0617481 0.330621 -1.26196 0.445507 0.508623 -1.22741 -0.0833455 
0.62352 -1.4128 0.0996162 0.544147 -1.25112 -0.240728 0.21245 -1.28187 -0.175364 
0.568407 -1.35602 0.0414651 0.541349 -1.30133 -0.0340875 0.328167 -1.26215 0.297691 
0.451492 -1.28838 0.450331 0.579825 -1.33501 0.469923 0.446569 -1.28092 0.2642 
0.511125 -1.29941 0.291062 0.451987 -1.3611 0.112149 0.61562 -1.30361 -0.0476749 
0.64376 -1.22728 -0.214012 0.972638 -1.28508 -0.284603 0.570346 -1.28626 0.172276 
0.475224 -1.28637 -0.250579 0.764621 -1.28926 0.343916 0.645576 -1.32732 0.220656 
0.577081 -1.23862 -0.0537234 0.999458 -1.26675 -0.0444845 0.741735 -1.2545 -0.0608542 
0.684796 -1.29046 0.0494563 0.876425 -1.34916 0.161957 0.603138 -1.25472 0.0798406 
0.780319 -1.23223 0.38804 0.790938 -1.24161 0.464709 0.54552 -1.26309 0.232896 
0.826087 -1.35949 0.207815 0.622041 -1.225 -0.144776 0.687873 -1.23256 -0.0330064 
0.553125 -1.2406 0.123833 0.732439 -1.23674 0.0213283 0.808467 -1.30048 0.178036 
0.828939 -1.25032 0.340722 0.681246 -1.26709 0.329872 0.809191 -1.22658 0.532537 
0.912577 -1.24734 -0.36955 0.769648 -1.30972 0.0489388 0.437728 -1.256 0.192606 
0.723885 -1.22675 0.535002 1.16349 -1.22111 0.011853 0.628961 -1.26629 0.530087 
0.734246 -1.22572 0.317651 0.705001 -1.24509 0.415529 0.578912 -1.24326 0.0154738 
0.958703 -1.29258 0.219494 1.10567 -1.23872 -0.167047 0.839029 -1.30529 0.0442182 
0.976994 -1.22599 -0.0923877 0.908361 -1.28982 0.0617605 0.616357 -1.23685 0.147522 
1.32158 -1.1972 0.526119 0.738702 -1.25642 0.161048 0.940299 -1.22523 0.19371 
0.952467 -1.20824 0.422999 1.2119 -1.26341 -0.182702 0.905143 -1.23211 0.0977908 
1.04513 -1.22582 -0.00800419 0.863861 -1.23343 0.171996 1.10066 -1.25819 -0.0320918 
0.963383 -1.26285 0.0318007 0.0866987 -1.41341 -0.246599 0.2859 -1.36072 -0.213047 
0.430062 -1.40919 -0.397639 0.0351686 -1.35958 0.315384 0.213254 -1.32114 0.482542 
0.0966759 -1.40799 0.156695 0.216634 -1.34413 -0.402017 0.500675 -1.31858 -0.348237 
0.0870923 -1.35983 -0.381489 0.493732 -1.34763 0.459768 0.25105 -1.27898 0.529061 
0.147099 -1.35435 0.379424 0.241082 -1.41179 0.297721 0.0966805 -1.35819 -0.0125289 
0.276988 -1.32002 -0.156624 0.080099 -1.35882 -0.288958 0.472354 -1.35385 0.309878 
0.348649 -1.40768 -0.0292721 0.12963 -1.34348 0.230563 0.213275 -1.33458 0.0981445 
0.219658 -1.29566 0.29143 0.320862 -1.29136 -0.295089 0.270947 -1.34801 0.0404062 
0.422521 -1.31832 0.166157 0.0826324 -1.29263 0.215268 0.515569 -1.30045 0.419215 
0.89328 -1.30018 0.533049 0.546856 -1.35555 0.42043 0.24087 -1.2949 0.228669 
0.318205 -1.35521 0.156954 0.318857 -1.35429 0.0925932 0.367299 -1.28842 -0.232395 
0.520257 -1.33281 -0.24138 0.492675 -1.2928 0.204008 0.548571 -1.22582 0.527673 
0.644624 -1.28736 0.40825 0.776975 -1.34085 0.461923 0.423823 -1.34429 0.228973 
0.676933 -1.41468 0.136489 0.594847 -1.22173 -0.399396 0.601213 -1.35847 0.188502 
0.854087 -1.2269 -0.316407 0.391266 -1.29513 -0.298439 0.828479 -1.29966 0.283799 
0.759168 -1.28959 0.419833 0.332854 -1.28447 -0.172132 0.571372 -1.27624 0.288773 
0.670145 -1.27247 -0.166635 0.490109 -1.24959 0.145378 0.879482 -1.29192 0.214219 
0.970423 -1.3876 0.0886154 0.535637 -1.28032 0.0564545 0.994849 -1.25505 0.443951 
0.64877 -1.33021 0.341066 0.941746 -1.29603 -0.063203 0.675347 -1.20738 -0.270471 
0.725718 -1.22896 -0.145042 0.791367 -1.30415 -0.0806743 0.820827 -1.34981 -0.0453018 
0.739916 -1.31829 0.178131 0.702942 -1.35502 0.138425 0.859715 -1.29912 -0.0262765 
1.00881 -1.24925 0.0867484 1.06207 -1.27481 0.0386666 0.912342 -1.25098 -0.140313 
0.786913 -1.28872 0.115026 1.10932 -1.28439 0.394433 1.00433 -1.24675 0.188849 
0.818553 -1.24327 0.229005 0.698566 -1.25825 0.110968 0.931702 -1.36133 0.21665 
0.857268 -1.28511 0.118985 1.19589 -1.36091 0.117148 0.947422 -1.35386 0.143589 
1.12376 -1.2589 -0.0978946 1.0265 -1.26073 0.27528 0.763173 -1.22431 0.0952195 
0.99317 -1.35374 0.1966 0.29759 -1.4153 -0.358829 0.19957 -1.37218 -0.327212 
0.0322035 -1.4135 -0.0345186 0.441409 -1.28068 0.531353 0.0339862 -1.41171 0.191283 
0.0880024 -1.32425 -0.106985 0.340235 -1.30684 -0.394474 0.0369045 -1.36216 0.021162 
0.032648 -1.34529 0.488403 0.346526 -1.40639 0.19848 0.15183 -1.41314 0.44443 
0.323998 -1.34689 0.532516 0.088151 -1.39521 0.22726 0.326632 -1.35884 -0.265443 
0.218224 -1.35068 -0.129156 0.248653 -1.41429 -0.202118 0.124993 -1.33763 0.152959 
0.311982 -1.29149 0.502049 0.0915278 -1.33735 -0.219751 1.00555 -1.41418 0.472962 
0.234202 -1.40735 0.202624 0.218233 -1.34153 -0.0603707 0.403471 -1.35847 -0.282325 
0.150993 -1.32347 -0.00109251 0.582373 -1.41374 0.215269 0.46909 -1.4131 0.144586 
0.452556 -1.28903 0.341008 0.274024 -1.3569 0.322726 0.194448 -1.36248 0.15763 
0.311644 -1.3457 0.270377 0.802375 -1.4127 -0.226548 0.190301 -1.38802 0.264682 
0.356516 -1.34233 -0.062065 0.161677 -1.30575 -0.120847 0.394473 -1.41526 -0.141506 
0.293194 -1.35422 -0.0873797 0.46558 -1.33978 0.396093 0.47928 -1.25484 0.394875 
0.297941 -1.35988 -0.0221701 0.358648 -1.34946 0.0162321 0.800754 -1.29741 -0.212157 
0.379028 -1.36167 0.155161 0.336273 -1.3453 -0.179558 0.352703 -1.29993 0.131961 
0.377677 -1.29363 0.25613 0.347487 -1.33268 0.211589 0.526152 -1.23568 0.43662 
0.447877 -1.2951 0.108919 0.73477 -1.25903 -0.210302 1.05808 -1.36698 -0.147702 
0.310447 -1.30422 0.00391232 0.444022 -1.3049 -0.0197849 0.836505 -1.41477 -0.140697 
0.613582 -1.36225 -0.0114193 0.650071 -1.36314 0.275137 0.501686 -1.35068 0.244407 
0.518483 -1.26049 0.345275 1.14794 -1.368 0.380305 0.628694 -1.36874 -0.0744951 
1.12044 -1.28368 -0.219154 0.72519 -1.29663 -0.116221 0.85376 -1.3246 -0.107771 
0.687008 -1.36358 -0.0515001 0.746528 -1.34154 -0.00647828 0.897912 -1.35459 -0.0555972 
1.04993 -1.23608 0.4675 0.635909 -1.31485 0.0923152 0.841236 -1.41501 0.254221 
0.652622 -1.25784 -0.0944409 0.895596 -1.35378 0.0897221 1.09827 -1.31884 -0.000869239 
1.01075 -1.31102 0.00851733 0.813308 -1.37064 0.0466007 0.753621 -1.3395 0.101822 
0.695788 -1.29819 -0.0350805 1.05059 -1.34983 0.155032 0.854852 -1.41217 0.0912084 
1.18038 -1.23134 0.410115 0.994495 -1.28997 -0.106224 1.09771 -1.40835 0.173053 
0.963342 -1.37554 -0.0367665 0.971588 -1.31635 0.0849764 0.859327 -1.20916 0.455092 
0.0341697 -1.37741 -0.227585 0.0314947 -1.41421 -0.17326 0.0354919 -1.41021 0.467895 
0.0724552 -1.41424 0.307601 0.0839699 -1.37149 0.528368 0.0998983 -1.41553 0.479538 
0.0769585 -1.41064 -0.339125 0.166922 -1.39481 -0.39495 0.384423 -1.36054 -0.403686 
0.0336249 -1.41208 -0.285848 0.0514228 -1.41294 0.0665869 0.264912 -1.4091 0.470979 
0.0356131 -1.41055 0.363816 0.240085 -1.4087 0.37036 0.142833 -1.41182 0.527495 
0.301655 -1.35417 -0.33219 0.142892 -1.41429 -0.331472 0.145818 -1.41471 -0.269136 
0.640508 -1.41014 -0.320253 0.424289 -1.41293 -0.237065 0.115935 -1.41367 0.060567 
0.0974724 -1.34395 0.422133 0.392141 -1.33181 0.529311 0.109642 -1.35189 0.315477 
0.500991 -1.4062 0.400786 0.17506 -1.37136 0.0535032 0.310246 -1.40789 -0.168351 
0.29256 -1.41419 0.0897201 0.209871 -1.40928 -0.0930882 0.355345 -1.34884 0.469519 
0.316774 -1.32231 0.415515 0.29156 -1.40986 0.249618 0.713819 -1.35035 0.518592 
0.207287 -1.35182 0.331946 0.411193 -1.35005 0.349649 0.453625 -1.34856 -0.224253 
0.38353 -1.35577 -0.218969 0.0655269 -1.35876 0.109086 0.45538 -1.40706 -0.173052 
0.243327 -1.3527 0.267277 0.263721 -1.35818 0.128527 0.420678 -1.35375 0.45052 
0.336709 -1.3209 -0.122273 0.457363 -1.41043 0.0498312 0.62918 -1.28045 -0.372304 
0.523642 -1.29204 -0.290466 0.569949 -1.41475 0.0649219 0.519078 -1.28588 0.489443 
0.648227 -1.41098 0.225353 0.550498 -1.35134 -0.296575 0.456632 -1.41397 0.209175 
0.680639 -1.36145 0.394745 1.07279 -1.29124 -0.269944 0.463104 -1.28395 -0.0797611 
0.428116 -1.34146 -0.0861478 0.501937 -1.32636 0.0149228 0.438346 -1.34184 0.0377921 
0.529467 -1.33099 0.355557 0.571523 -1.28968 0.535691 0.942802 -1.25467 0.531367 
[...]
POINT_DATA 1274
FIELD FieldData 10
VELOCITY 3 1274 double
6.5818579639e-05 1.6098009393e-06 6.0428916697e-05 0.0013864926465 0.00055258786411 8.4534276621e-05 -0.00030747497973 2.3353565498e-05 0.00016853219857 
-3.5925866508e-05 6.976060161e-05 2.6676463901e-05 -0.00012360388491 -5.4583643931e-05 -5.5526485032e-05 3.7085595635e-05 -2.9685949918e-05 0.0002183062707 
-0.000380397871 -3.1245593333e-05 -5.6251192003e-05 -0.0007341930866 8.6228593401e-07 -0.00042972966895 -6.7592130647e-05 -2.7201030647e-06 -0.00024133043644 
2.656167452e-05 -6.5053336121e-05 -9.662852484e-05 -0.00027047625625 6.1870279308e-05 -3.9475528229e-05 -0.00063774675761 2.6835026635e-05 0.00018857020677 
1.676797983e-05 -9.3805151916e-05 6.6445906335e-06 -0.0001333267467 5.2810068038e-05 -3.3517466216e-05 -0.00012270246762 -2.1683630533e-05 7.5086632553e-06 
-7.1429731059e-05 6.7885842115e-05 -0.00022147853766 -0.00023555375922 6.490499287e-05 -5.2871829177e-05 -0.00030411645122 -0.00011632061641 -5.3022817365e-05 
2.58458809e-06 -0.00022420316137 -0.00022966785227 -6.2271077271e-05 -4.7570031082e-06 8.9243099703e-05 0.00014714849649 -0.0001869033009 -0.0001550054385 
1.5910621095e-06 -5.0630853359e-05 -0.00029575921906 0.026034239098 0.023904476366 0.019553948618 -0.00026459491357 -2.5882055961e-05 0.00027277900892 
-9.892000273e-05 -5.5818707436e-05 0.00031475895747 -0.050876987251 0.03422977442 -0.016791669718 -0.00064025884849 -0.00039119077533 6.636434436e-05 
-0.00031366276082 -4.3548394493e-05 -6.3990588724e-05 -0.00012869731065 -7.8468872987e-05 0.00012798983198 -0.00029566027325 -6.3189803376e-05 -7.3514766722e-05 
-0.00020872749624 -1.8254819168e-05 0.00015479973027 -5.152797406e-05 3.1154902742e-05 -0.00012978087925 -0.00096047447243 -0.0007549730234 -0.00037087554892 
0.00010945045242 -0.00018867655381 -5.1379386495e-05 0.00011384664159 -3.1159548655e-05 5.4288598744e-05 6.0223200232e-05 -0.00069875657124 0.00049077444153 
-0.00016631441311 -0.00016195684629 -0.00019574019296 -0.00016346770137 -0.00033428337251 -3.0162430496e-05 0.00022711102711 -0.00042254521309 -0.00027523818719 
-0.0077888073098 0.0019953070868 -0.0078484558823 -3.7864102666e-07 -0.00018571911841 -7.1431818765e-06 -6.4042301648e-05 -5.2642194984e-06 -2.5248488504e-05 
-0.00020589043543 5.8851171603e-06 -0.00011711569112 -6.0564771376e-05 -7.8038667649e-05 -2.0654015977e-05 -0.00023082484213 5.4306992088e-05 0.00020947895898 
0.0005289468075 -0.00031917986086 0.00026496959283 -0.00012849973774 -0.00031945467324 -0.00024098854744 -0.00053240277921 7.5970655958e-05 3.4542447248e-05 
-0.00019022429632 -5.1271073308e-05 -0.00011513055508 -9.467485989e-05 -7.1780797199e-05 -7.7726944598e-05 8.7884881176e-05 -9.6836298252e-05 0.00010368860227 
3.1329255085e-06 -0.00035256047406 8.2872680409e-05 -0.00032020463131 -8.7892103824e-05 -0.00015000646672 -0.00015202444371 9.4883268074e-05 3.4952730074e-05 
-0.00032568906333 0.00016164612516 0.00019129605766 -0.00028531541736 -0.00025255605389 -7.3343893668e-05 0.013469680742 -0.00068609547031 0.011931141366 
5.034156078e-05 2.1638611744e-05 -1.0032905173e-05 -0.00017970796923 -1.3858966128e-06 4.6485922587e-05 -3.0786617032e-05 -6.0597450779e-06 0.00014942464826 
-7.062394142e-05 1.3147794286e-05 6.4987334688e-05 -0.00024963839682 -0.00026013127953 0.00015599780299 -0.00062434499948 -0.0001162655002 -8.4360054797e-05 
-0.00033914629395 4.724946108e-06 -0.00011209790926 -4.3449403787e-05 -0.00020546426049 0.00037998118308 -4.4300724277e-05 -0.00014509688875 -3.9222210862e-05 
-0.00045414826631 -3.4447051922e-05 0.00012340548918 -4.3172302887e-05 -0.00024696559187 -2.5420209193e-05 -9.2088590168e-05 1.4212411728e-05 -6.2181094433e-05 
2.2323292168e-05 -0.00018230841 -4.4063733316e-06 -6.6048870451e-05 2.0419026569e-05 0.0001986152144 -0.00012565954336 -0.00037383829916 -0.00019307384186 
-0.00010129896781 -0.00034971944468 0.00040511588092 -0.00018448360017 2.9576346042e-06 -0.00013005138524 4.4030996438e-05 -0.00018356197764 -7.0301893662e-05 
-0.00010975738848 8.0385677804e-06 4.8258852412e-05 -0.00016710189916 -9.7934128608e-05 6.1115478188e-05 2.0204375717e-05 -0.00010190756489 2.9847853965e-05 
8.5684897618e-06 5.8456010275e-05 0.00014841070104 0.0003746078632 7.4371255268e-05 0.00015121552654 -0.0004540029956 0.00021021527479 0.00013066535124 
-0.00052303137053 -0.00030466524767 -7.4578373454e-05 -0.00036304786574 -8.2578985654e-05 0.00010519728176 -0.00037590849534 -0.00019686222349 0.00065200771232 
-0.00016249118175 -0.00043663132613 -0.00034270162114 -0.00011419734728 -0.00025632917934 -0.0001947714835 0.00031326278661 -0.00021794184114 -9.7757294892e-05 
0.00020725909268 -0.00017679006306 2.7998118762e-06 0.00013965945622 -7.1997133122e-05 0.00011274483532 7.029732296e-05 -0.00017988091737 -7.9728401925e-05 
-0.00020649999148 1.4224490718e-07 -0.00012844486554 -0.0001094802034 0.00012145404096 0.00021058513393 -0.00012018163068 5.6210798529e-05 -0.00015692026793 
7.4998751804e-05 -0.00035981939477 -0.00025240039392 -5.3735892423e-05 4.5393681969e-05 0.00017077441 -9.6216668342e-05 -0.00029044666956 -0.00020437456263 
-9.9695406126e-05 3.4579620226e-05 -6.7013476148e-05 7.9917513897e-05 -4.8647574069e-05 0.00019308450218 -2.3020834317e-05 -8.6525394295e-05 -0.00015353806943 
-9.6911283949e-05 9.4251049354e-05 0.00026219417781 -0.00055324420606 0.0010159941541 -0.00029848421296 0.00011363136154 -0.00017155796584 5.0251070352e-05 
-0.00025245000738 0.00016712004953 0.00020121451386 9.1270473534e-05 -0.00022497606514 -2.6678949683e-05 -1.3311614539e-05 -0.00015576362455 -0.00019512814554 
0.00010029582251 -0.00023527844544 -8.0036565359e-05 -4.4759198686e-05 4.7665070397e-05 -7.0912231751e-05 -2.4451057235e-05 2.5154462602e-05 -0.00016225781522 
-0.00020042077849 -0.00063752081016 0.00038948088266 7.4245549192e-05 -0.00014187933581 -0.00016972883201 -5.941832539e-05 0.00033959936565 -8.1197225471e-05 
4.7198970044e-05 -0.00026704271826 -0.00061693858366 -0.0001320546173 -0.00029966300105 7.2633385818e-05 -0.00018990432532 -0.00025846069041 -0.00012271220349 
0.00012018372984 5.1449370758e-06 2.994463098e-05 -7.9523558088e-05 -0.00018336688769 -0.00023893163771 -0.00020416673723 -0.0003009828028 -0.00013884579385 
-9.398000065e-05 5.6078235603e-05 -0.00021485928656 -0.00052632251018 -0.00034427728944 0.00093513684828 -7.93589426e-05 -0.00038190870369 -0.00023991098536 
0.00014235926151 -0.00024835999379 -0.00010476756632 0.00011133387354 9.0851677973e-06 -0.00020259020637 -0.00025796237896 -3.4400057022e-05 -3.6124454651e-05 
-0.00017979829405 -0.00019880641844 3.3752246998e-06 -0.00019114299072 4.0467006465e-05 0.000109911687 -8.7646802105e-05 -3.953205087e-05 -0.00016714424966 
-1.7464059093e-05 -1.9191282715e-05 -7.0824712406e-05 2.3008108971e-06 -0.00011396605188 -6.14998753e-05 -0.00041546395062 -3.6084470787e-05 0.00025682433616 
0.00014953491597 -2.4599259072e-05 -0.00017840032736 0.00015008327052 -0.00024386442708 -0.00026154496831 -0.00017948769354 0.000161104168 -7.2218972091e-05 
-0.00018294549608 -9.1339699437e-05 -6.1581551698e-05 -0.00015178224893 7.8172528631e-05 -0.00010308803317 -0.00037068400551 -0.00016037445924 -0.00042139656136 
-0.00013640116032 -0.00011648709885 9.4037428796e-05 -8.4284050078e-06 2.8955047285e-05 5.4259098011e-05 -5.8515312988e-05 -2.4944394669e-06 2.998434478e-06 
2.3975994549e-05 8.561786569e-06 2.3193820409e-05 -1.8126098332e-05 6.5144470583e-05 0.00019751639883 -4.9584801911e-05 -3.2799727331e-05 -4.9373392172e-05 
-6.7162291744e-05 5.4719555927e-05 -7.2015984261e-05 8.6465217937e-06 2.4654322808e-05 -5.0199614866e-06 -0.00020707533639 0.00010416126904 -6.2212903568e-05 
-2.0759576833e-05 1.8193885278e-05 -2.3225271022e-05 -0.00021223346839 -3.4258304154e-05 -8.1191946589e-05 -5.4090172107e-05 -4.481732527e-05 -1.5604410212e-05 
9.4603788779e-05 -1.4451649315e-06 5.313246252e-05 -4.0069563196e-05 -3.9690052358e-05 2.4103728222e-05 -6.1598605845e-05 2.5617088425e-05 -3.5738073073e-05 
4.2132238659e-06 -0.0001008912496 0.00011659304157 1.0544034855e-07 8.6092056418e-06 -4.4436121996e-05 -0.00048726997196 -0.00014758555064 -0.00021105076485 
-0.00015577678757 0.00018055972257 0.00018686008258 -0.00016335502696 2.5052029e-05 -2.1660685962e-05 -0.00038763882958 9.650475488e-05 -0.00014177724174 
-0.00018421489509 -2.077729171e-05 -3.7592376511e-05 -0.00017132526747 -1.0368695192e-06 7.0938012115e-05 0.00016393156011 0.0001571791916 0.00031280818915 
-0.00013084847558 6.6492421022e-05 2.0536090532e-05 -0.00016439555232 -4.8364674291e-05 -8.6025466224e-05 -5.2389954126e-05 -0.0005600850378 -0.00066264163021 
-0.00020605438689 9.2649372548e-05 -5.439005286e-05 0.0002175360518 -0.00023002696355 2.3724256908e-05 -0.00012512005469 5.8256336877e-06 -8.2289602799e-06 
2.5257152463e-05 -0.00011206051712 8.5051219667e-05 0.00025577145082 -0.00040566859736 6.398765185e-05 -9.8246787835e-05 -8.7792768561e-05 2.2767967401e-05 
4.5096122589e-05 -8.0225333643e-05 -0.00017942761146 -0.00017887957133 1.2063322474e-05 0.00023195864847 -0.0002969224436 -3.986428971e-05 -4.7334704208e-06 
-0.00028139650573 -0.00013860536748 -0.00015822986531 -0.00028120685434 -0.00016342527231 0.00041501896482 -0.00044215427365 0.00017193902756 6.3178173139e-05 
-0.00016594026578 2.7785759458e-05 8.6689046358e-05 -0.00044564317921 -6.770507802e-05 2.6480410532e-06 -0.00013204903316 0.00011945625678 -0.00022486285751 
0.00018371209461 -0.0001934586313 0.00019624687252 -0.00021433303414 9.6153452723e-06 -6.4199016068e-05 -0.00018421370087 -0.00015721448404 -0.00011125663436 
-2.7016709714e-05 5.9374863851e-05 -1.4564300314e-05 -8.5122676172e-05 -4.0161973618e-05 3.2073126468e-05 -0.0001402494948 -0.00063154149962 -9.4396444562e-05 
2.8525425581e-05 -0.00030749669507 -3.0335012906e-05 0.00011675895064 -0.00029104225616 -0.00012162412859 0.00013099263394 3.7046359177e-05 9.9195510054e-05 
-0.00010012603585 0.00014214103824 3.1512431206e-05 -9.8031656088e-05 -2.1395822566e-05 5.4712309649e-05 0.00096321829616 -0.00041362461031 -0.00048558324951 
0.00017705927244 -0.00013484651074 -2.8643882875e-05 -1.2565352074e-05 -4.2489900154e-05 0.00021917561828 -0.00052775979824 -0.00035986245568 -0.0011252191772 
-6.5395433776e-05 -0.00011809378625 -0.00021355323962 -0.00011117723836 7.8671971692e-06 -5.2374843801e-05 7.4805951837e-05 1.922801487e-06 -0.00015774126935 
6.5545106725e-05 -0.00014225897486 -8.3874833755e-05 -0.00028403509503 -0.00010329341092 7.3503240747e-05 -3.1350519161e-05 3.6870918301e-05 6.9609075961e-05 
0.00011078951459 -8.6629346626e-05 -0.0001000453999 3.4484278519e-05 -1.6105306641e-05 -6.7063531068e-05 -6.8091404345e-05 -1.8977688543e-05 0.00031089583554 
-8.2894315393e-05 -0.00015320577527 -0.00017318902435 -0.00032559315343 -0.00140208741 -0.0012989479872 -6.8866989641e-06 6.9773650938e-05 9.6368692905e-05 
-9.0750020171e-05 -6.2466169373e-05 -9.0706699548e-05 -9.5450813116e-05 -0.00016458087603 3.0766051015e-05 -0.00016177956914 -0.00018054337214 -0.00030804510285 
8.4581717919e-05 -2.6200073879e-05 -5.9719669852e-05 -0.00011203049271 -0.00012339418499 8.7747386956e-05 2.5799659492e-05 0.00014138052353 9.4030638672e-05 
5.4586984748e-05 -0.00019467216624 -0.0002467060264 -7.2855528728e-05 -0.00017354522048 -3.1556814918e-05 -0.00010943630656 -0.00016305733924 -4.7636319886e-05 
-0.00012283117082 -0.00046330515712 -0.00018651981179 -0.00025881006387 9.188682336e-05 9.6586546741e-05 6.533970746e-05 4.4107609586e-05 -1.6845169861e-05 
1.1649336901e-05 -3.1244248916e-05 -6.189636317e-05 -3.5574685092e-05 -5.7964501875e-05 -7.965107294e-06 1.8086872301e-05 -0.00022803903843 0.00014344504281 
8.1997087309e-05 -0.00024683926348 2.3726542391e-05 -9.1787754803e-06 -3.6901235951e-05 -6.8314918815e-06 -4.5108073e-06 1.3688054536e-05 8.3404161705e-06 
-6.3912310078e-07 6.2429111064e-05 -0.00020273606602 -0.00014111270419 -8.6163216427e-05 6.6737439308e-05 -0.00032271527213 0.000166355333 -0.00021958413552 
-9.7088052326e-05 -2.4588182533e-05 2.3985749575e-05 -0.00011861224906 9.6395683634e-05 0.0001573885957 -0.0001152117134 -9.7141795066e-05 -0.00024059336593 
-6.2007582558e-05 -8.0983420771e-05 0.00021466920676 -0.00061799765893 7.3975390432e-12 0.00080473983807 -0.00022843236203 5.1524470321e-05 4.9087712637e-05 
-0.00012041286812 -0.00010695893487 -0.00015971365774 -4.697229792e-05 0.00012460132128 -2.8543589282e-05 -0.00014381826534 4.1499800304e-05 4.1960340479e-05 
-0.00011217477514 -2.2903890624e-05 7.5670298797e-05 0.00022656872221 -0.00020650608496 0.00027176690727 4.6490866458e-05 7.9206107462e-05 1.3442621339e-05 
1.5738261351e-06 -0.00015559019316 6.8295950685e-05 -2.4888645778e-05 -9.7009032057e-07 9.5697353593e-05 3.1130287073e-06 4.7080911012e-05 6.4295605324e-06 
-0.00038154475467 -0.00056194283228 0.00071380024816 -0.00025998246347 9.8267106182e-06 -2.5772925668e-06 -0.00021544507112 5.2323605542e-05 -0.00012879988534 
-0.00011836918771 -0.0001407435149 -0.00013777721803 9.0619077564e-05 -2.1385726827e-05 -0.00015204153206 -0.00017403162107 -9.1920763188e-05 6.4038374393e-05 
0.00011621820737 -6.4596925158e-05 -1.4615930071e-05 5.4766130841e-05 -6.9147661166e-05 0.00012741147612 0.00010669336713 1.1619994018e-06 0.00026646060721 
3.6548460318e-05 -3.1260535948e-05 0.00010987432493 -0.00052120249809 -0.00029067878524 -7.0152832127e-05 -0.00030477862539 -0.00022396719323 0.00036693321028 
-0.00022006892688 2.7008590334e-05 0.0001049314522 -0.00033255026139 0.00011042981666 0.00013477276025 0.0001253884535 -0.00022266588891 -6.4756210459e-05 
-4.5492432215e-05 -2.3123569816e-05 0.00019135466738 -1.9955841898e-05 -0.00020299937026 7.9206650644e-05 -0.00025449258075 -7.8164777604e-05 -0.0002602145126 
-0.00033982001717 1.0779122226e-05 3.2719530822e-05 -0.00022848764155 -0.00018198285206 0.00016610749788 -0.0002271887975 7.2133028937e-06 0.00030214395725 
0.0003823319246 -0.00051704029542 -3.4065524961e-05 9.1671973455e-05 -0.00026419185679 -0.00013548896663 -2.6913851825e-05 -4.3577877331e-05 2.0037312605e-05 
-0.00067368639806 -4.2830731894e-05 0.00055959735066 -0.00012208193253 -0.00024515860617 -5.3980059075e-05 0.00010615269917 2.0782066971e-05 -1.5910975006e-05 
-3.2851087729e-05 -6.5696167773e-05 -0.00012561028745 -4.0905630052e-05 -0.0001962672832 5.9808206584e-05 -0.00031756611571 -0.00016342538657 -4.499167545e-05 
-0.00075653876755 -0.0013621673418 0.00024798827223 5.5566307179e-05 9.1827265858e-05 -0.00016283839056 2.6371187183e-05 -0.00021079287889 -0.00019996860438 
6.6455397057e-05 -0.00017629829983 -9.1915380243e-05 1.2671153838e-05 -0.00018647134232 -0.00035625066034 -0.00013657876354 5.5249898302e-05 0.0001317144929 
5.5381879225e-05 4.593609946e-05 4.3295169153e-05 -0.00034609612573 -2.1109243088e-05 9.0522331218e-05 -3.6479932186e-05 -2.1440364077e-05 2.500865319e-06 
0.00047545368333 1.7692961099e-05 1.5898688539e-05 0.00012589906363 -0.00011838808345 1.8375014398e-05 -0.00044510090099 3.8691628718e-05 2.7611729025e-05 
3.473070135e-05 -0.00032393061929 -0.00011165903582 -0.00011287324138 -1.6723581182e-05 4.9633535817e-05 -5.3538365622e-05 -0.00022702118311 -0.00018215060241 
-2.3802768027e-05 -1.3593882605e-05 3.7015173733e-05 0.00010870378953 -0.00010211752251 4.8154110504e-05 -0.00019424712021 -5.3342227497e-05 0.00028075341757 
-0.00017369800634 -0.00018300699546 -0.00025989365498 -9.3274591631e-05 0.00014588930739 -0.00017886072977 -7.2041916001e-06 7.5591864287e-06 0.00017469518664 
6.1432720645e-05 -0.00017378580507 -0.00016130761041 6.6738851563e-05 -0.0001348946714 0.00024939175349 -0.00049998656838 -5.7778656991e-05 -7.8729296526e-05 
-6.956512946e-05 -1.3792695348e-05 4.2037145996e-05 -0.00016547648286 0.00010196621825 -2.5443336302e-05 -0.0017585806 0.00141517904 -0.007878459772 
9.1003691096e-06 2.4454661264e-05 -0.00026881639552 -0.00013008617018 0.00016576167773 -7.4730140505e-05 -1.444861066e-05 -1.7141951733e-05 1.0970579068e-05 
-9.0842034612e-05 -6.4085559641e-06 0.00023800340143 -0.00020394072881 8.0979277731e-05 -4.0213788792e-05 0.00014526092808 2.1078409983e-05 0.00023265951402 
6.618944356e-05 8.5250074344e-06 -1.2220737375e-05 -2.6959457789e-05 -1.2123229275e-05 9.4615253832e-05 5.360928473e-06 -2.3867552331e-05 -3.3239312062e-06 
2.5587514413e-05 -3.6262744561e-05 -3.298793582e-05 -9.8218703409e-05 -2.9162402387e-05 -1.5429340463e-05 -0.00030113687002 -2.1325447551e-06 -6.4058659913e-05 
3.7413183883e-05 -2.2878826493e-06 0.00013342946652 6.5653997477e-05 2.0801830926e-05 8.1453800956e-05 -0.00022289089216 1.2382491604e-06 -0.0015300949948 
-0.00019859730752 -1.9013618511e-05 8.8504182175e-05 -1.8651626571e-05 -4.9288233277e-06 -4.4587845092e-05 5.5201368328e-05 -7.1083168569e-05 -4.1225981892e-05 
-0.0001396717989 -1.4503951874e-05 -2.8693281408e-05 1.8146840754e-05 2.1366834586e-05 -2.8795315189e-05 -0.00011898598651 2.401447059e-12 -0.00011503410507 
3.1146153378e-06 2.1286402006e-05 -2.8611220828e-05 -0.00010331313232 -1.2744593649e-05 8.6065251569e-06 -2.9264458044e-05 2.8908348796e-05 0.00011918917826 
-1.0702767594e-05 -7.4286855211e-06 -0.00015994611376 -3.7584760273e-05 -6.3926494046e-05 -0.00022484314787 1.2401912213e-05 1.7667118103e-05 5.3623122265e-05 
0.00031101351673 -0.00018465525881 -0.00016337259878 -7.9542029608e-05 -0.00024157421373 7.2970822083e-05 -0.00035080888861 -0.00016625556739 0.00024449553837 
-9.4459539796e-05 -7.6014526564e-05 -8.6450968885e-06 -6.3801920533e-05 -1.4026382843e-05 3.0262736835e-05 0.00014365529227 8.9145560879e-05 0.0001907885373 
-0.00014766172258 6.5866956444e-05 7.6126340639e-05 -0.00055690999347 -0.00017588175949 -4.2127072903e-05 0.00012473231331 -8.6349033503e-06 9.4012113087e-05 
-1.5352981503e-06 -2.377477736e-05 -8.1680587616e-05 -0.00015238659109 6.3628779877e-05 -0.00010414979484 -9.9778111582e-05 -9.3295845433e-06 8.1718906158e-06 
-9.4967563852e-05 -0.00011987719607 4.1869607633e-05 -0.0001788413871 0.00035471093882 -0.00018635529727 -0.00037621988426 -0.00017363440053 0.0001599791132 
3.1446179243e-05 -6.0744694947e-05 -1.1539362641e-05 -0.00011550068435 -0.00018701588377 0.00015431575731 -0.00065285261502 -0.0006319221686 -0.00093819845589 
-0.00011297335469 5.3054998972e-05 -5.9727650304e-05 -3.8809910442e-05 2.7416807247e-05 9.0141369139e-06 -0.00075762594166 -4.5153441966e-05 0.00032555194298 
-0.0001867711292 6.6177460219e-05 4.7530624042e-05 0.00012107110331 0.00014420132534 -0.00022250620282 -1.7145386966e-05 -0.00014881541088 -8.3080996258e-05 
-0.00011126114345 -2.3598422354e-05 0.00011665746523 -7.8214311211e-05 -0.00012970938327 6.0302824093e-05 -0.00010891208648 -2.0340576571e-05 -0.00012148198123 
-0.00013857540768 -4.4869862477e-05 0.0001541877386 -4.3808570768e-05 5.640303133e-05 -3.2152105194e-05 -5.3752145396e-05 -9.6819216107e-06 2.081841886e-05 
-0.00025304747782 -0.0012015558546 -9.0206110517e-05 -0.00031820890037 -2.4736783422e-05 1.9923763224e-05 -7.3083842294e-06 -0.00023187704798 -2.7108938658e-06 
-3.4078316585e-05 -5.8734201309e-06 9.0043361101e-05 -8.1923800007e-05 2.8388728661e-05 -0.00018735317602 0.00018686712796 -0.00018617406293 -8.9079848151e-06 
0.00011557243038 -0.00026033612153 -0.00030963243172 -0.00022372560876 -0.00032306193661 -0.00022800718821 -0.0001461537513 -0.00021313130235 -4.610886341e-05 
-2.1549932065e-05 -0.00013559827523 -0.00046303376682 -0.00011126941306 1.8831011461e-12 4.984577673e-05 2.3578424419e-05 -6.1914943892e-05 -0.00022759624551 
-4.1412802463e-05 0.00016386044153 0.00015835953743 -0.00024272674704 -0.00011595400898 0.00020861302156 -0.00012931531315 -2.4868162277e-06 -8.1498498874e-05 
-8.7233002483e-05 -9.3089391738e-05 0.00023924336862 -0.0001201954461 -0.00013631050617 -1.1981056162e-06 -0.00010734006206 -1.5239043853e-05 -3.2908176181e-05 
0.00013909206119 2.2117110026e-05 -0.00013611790675 -2.7226195802e-05 8.0897288505e-05 -8.1910551036e-05 -0.00036957906182 -0.00010501666964 -0.00010099004547 