# vtk DataFile Version 4.1
vtk output
ASCII
DATASET UNSTRUCTURED_GRID
POINTS 1274 float
0.584128 0.381091 0.037956 0.536489 0.488558 0.10745 0.5695 0.399761 0.268466 
0.579456 0.3819 0.109767 0.487224 0.601622 0.0323191 0.497337 0.593967 0.116619 
0.557221 0.439157 0.216073 0.538208 0.475279 0.268638 0.450704 0.70719 0.0697002 
0.465378 0.650085 0.148736 0.524809 0.507767 0.216681 0.503324 0.567587 0.265368 
0.421824 0.759536 0.031959 0.402366 0.826089 0.0480057 0.447242 0.718333 0.147801 
0.459749 0.686676 0.221158 0.399511 0.826001 0.261648 0.372359 0.897409 0.0387164 
0.461967 0.76963 0.0969544 0.509361 0.720721 0.109311 0.395347 0.84292 0.124324 
0.492935 0.752132 0.220863 0.370674 0.8914 0.259005 0.426889 0.749132 0.209513 
0.340349 0.959187 0.0545353 0.399587 0.8139 0.191769 0.34676 0.962143 0.260297 
0.307698 1.04115 0.0336644 0.424375 0.951223 0.0932894 0.365104 0.91538 0.114946 
0.360191 1.08973 0.0408058 0.373262 0.874403 0.18286 0.348864 0.941906 0.180774 
0.417436 1.09062 0.0974354 0.442839 0.996527 0.0368221 0.33877 0.994938 0.123214 
0.48723 0.987973 0.0984796 0.323425 0.998311 0.20314 0.405759 0.922059 0.209784 
0.281899 1.10262 0.0389721 0.372874 1.0167 0.0359838 0.391416 0.993341 0.182301 
0.30369 1.05587 0.174124 0.328708 1.03466 0.26484 0.305246 1.06939 0.100696 
0.430589 1.06791 0.0356639 0.292419 1.09454 0.237898 0.275648 1.11112 0.150716 
0.604316 0.311731 0.0302152 0.752384 -0.0519695 0.142627 0.69939 0.106541 0.11404 
0.733861 0.0150331 0.191794 0.694427 0.101551 0.26649 0.726454 0.0317632 0.263093 
0.616863 0.28506 0.200408 0.586617 0.368653 0.210586 0.707593 0.0758431 0.0381323 
0.646495 0.223601 0.165294 0.547271 0.470367 0.0378788 0.692612 0.222224 0.0500649 
0.644698 0.258011 0.0996646 0.636172 0.237825 0.268347 0.637319 0.369963 0.262764 
0.602202 0.330851 0.151698 0.61571 0.447808 0.044499 0.51441 0.54387 0.0659489 
0.600769 0.469501 0.109973 0.568109 0.554962 0.185655 0.662741 0.327338 0.115622 
0.602545 0.455572 0.266698 0.51308 0.534888 0.147776 0.479856 0.619952 0.203884 
0.559203 0.486079 0.169283 0.654513 0.353076 0.194197 0.570767 0.57684 0.0997666 
0.626029 0.565648 0.14453 0.531393 0.653753 0.0394025 0.593926 0.532346 0.0402756 
0.554072 0.618115 0.154253 0.494695 0.659691 0.0955162 0.432553 0.729014 0.269586 
0.576472 0.575071 0.260782 0.627466 0.421028 0.218093 0.640632 0.549917 0.217362 
0.543411 0.622753 0.218241 0.591706 0.499103 0.220596 0.518309 0.727388 0.038428 
0.583134 0.697766 0.0319537 0.576761 0.602234 0.0326168 0.524265 0.680919 0.167058 
0.558344 0.664476 0.102681 0.527844 0.696985 0.259123 0.489336 0.631252 0.268105 
0.479922 0.796989 0.0373676 0.436683 0.927572 0.0325878 0.525678 0.85083 0.0331309 
0.46875 0.836882 0.102584 0.48153 0.788561 0.159631 0.526986 0.789473 0.0975448 
0.538352 0.777389 0.265552 0.472728 0.809003 0.261294 0.595939 0.808507 0.268881 
0.540476 0.792108 0.202006 0.461515 0.864094 0.0323723 0.427634 0.887027 0.0805092 
0.53301 0.85785 0.0958497 0.438743 0.904387 0.147784 0.459677 0.84978 0.198353 
0.511046 0.900778 0.264246 0.447758 0.87527 0.266927 0.539122 0.841323 0.243085 
0.536417 0.981239 0.0385444 0.542591 0.922888 0.0937012 0.508128 0.89523 0.137764 
0.423823 0.936271 0.269172 0.585009 1.02469 0.172986 0.549173 0.956855 0.267296 
0.479444 0.928653 0.206398 0.480688 0.97087 0.264221 0.515247 0.955368 0.155354 
0.413917 1.00379 0.250654 0.592505 1.02992 0.0371227 0.567822 0.98382 0.116202 
0.497049 1.04224 0.0341932 0.409454 1.01737 0.0958081 0.451437 0.975219 0.160585 
0.400201 1.08439 0.260951 0.496292 0.993197 0.203289 0.454547 1.05204 0.211357 
0.529639 1.0204 0.266073 0.546217 1.09265 0.0367553 0.383926 1.05862 0.143619 
0.520799 1.07926 0.217564 0.365018 1.04887 0.207965 0.523843 1.033 0.164328 
0.452174 1.0407 0.143844 0.766811 -0.196394 0.130311 0.629042 0.255148 0.0315308 
0.806888 -0.293774 0.0312266 0.80197 -0.207276 0.21469 0.749005 -0.0450429 0.261943 
0.759545 -0.26583 0.197531 0.753825 -0.140937 0.0601968 0.677243 0.150991 0.0365091 
0.659365 0.182347 0.0965757 0.613662 0.299471 0.265504 0.670731 0.167705 0.26304 
0.769606 -0.105359 0.203811 0.799801 -0.0365161 0.211749 0.716954 0.169202 0.144455 
0.669688 0.327388 0.0386256 0.772558 0.0863803 0.100269 0.63257 0.407787 0.148494 
0.718169 0.238024 0.15637 0.683945 0.232139 0.223448 0.674711 0.147207 0.19587 
0.698664 0.405577 0.261639 0.670408 0.513511 0.0413991 0.647445 0.386867 0.077928 
0.648902 0.514951 0.111146 0.639538 0.478542 0.172284 0.688955 0.520008 0.267388 
0.685565 0.42242 0.19101 0.724936 0.373935 0.208314 0.665663 0.463712 0.24639 
0.679448 0.535888 0.16085 0.663963 0.451851 0.101638 0.707397 0.582244 0.0397777 
0.643522 0.570929 0.073819 0.609168 0.616252 0.19913 0.591159 0.651857 0.261834 
0.670344 0.598416 0.265241 0.581192 0.692869 0.206149 0.709758 0.487111 0.194992 
0.675868 0.608906 0.200511 0.640378 0.624311 0.0347566 0.624254 0.620942 0.11046 
0.64971 0.723094 0.0397845 0.54826 0.790247 0.0316409 0.599375 0.73564 0.260434 
0.65762 0.786597 0.265549 0.596259 0.664581 0.15207 0.543941 0.748719 0.156924 
0.60136 0.835573 0.0386296 0.581902 0.728889 0.10179 0.547804 0.898129 0.198012 
0.531339 0.839313 0.158831 0.590824 0.809613 0.133289 0.582129 0.881104 0.269178 
0.609375 0.754365 0.184414 0.502531 0.916335 0.0423861 0.605739 0.962004 0.0335714 
0.636349 0.900512 0.0363569 0.568353 0.900859 0.0387889 0.617142 0.938067 0.0935077 
0.59354 0.877371 0.0965571 0.596084 0.821557 0.206844 0.558691 0.97276 0.202895 
0.603448 1.08235 0.0885106 0.653238 1.06011 0.0322886 0.625825 1.02518 0.12448 
0.58064 0.920539 0.14096 0.650434 0.915661 0.268671 0.617146 1.07727 0.162402 
0.589932 1.0517 0.237859 0.619975 0.957357 0.174143 0.618524 0.889343 0.216139 
0.617566 0.976643 0.249566 0.713807 1.05726 0.0598527 0.693994 1.03183 0.121697 
0.53303 1.05091 0.0974787 0.716596 1.05096 0.222994 0.659723 1.0191 0.190044 
0.819109 0.95972 0.210117 0.781839 -0.386638 -0.0055744 0.839345 -0.41577 0.0693784 
0.758129 -0.706114 0.151967 0.803011 -0.422391 0.286982 0.80369 -0.518121 0.209452 
0.739175 0.00667366 0.0430748 0.800167 -0.088328 0.0444103 0.801789 -0.335612 0.121738 
0.841162 -0.205467 0.270027 0.792907 0.0574166 0.168424 0.805913 -0.260472 0.269946 
0.823731 -0.0889565 0.266625 0.782812 -0.133263 0.124244 0.744891 0.173082 0.0376609 
0.75094 0.204827 0.099243 0.78613 -0.0324654 0.0928267 0.77265 0.132532 0.166628 
0.743336 0.117479 0.227525 0.797554 -0.265406 0.0976587 0.853128 0.0537209 0.205533 
0.846634 -0.106902 0.200162 0.679898 0.435318 0.0351674 0.727558 0.283928 0.0349434 
0.717319 0.28767 0.102733 0.695357 0.377726 0.145195 0.71737 0.321488 0.168005 
0.735231 0.468207 0.262132 0.715935 0.264421 0.269079 0.747835 0.277856 0.210786 
0.689992 0.319032 0.243935 0.783743 0.260327 0.140874 0.731484 0.177006 0.205257 
0.721404 0.490643 0.0964649 0.72279 0.398237 0.0836543 0.771744 0.263644 0.0786644 
0.7647 0.333238 0.118792 0.783027 0.339977 0.202939 0.723633 0.637293 0.268701 
0.723377 0.440037 0.141307 0.697002 0.58102 0.114631 0.702923 0.661853 0.0462745 
0.761986 0.541942 0.0851745 0.771334 0.447067 0.0920368 0.748865 0.537406 0.153963 
0.710908 0.55279 0.212173 0.76155 0.433129 0.198321 0.662072 0.66685 0.260768 
0.645184 0.677508 0.194142 0.674134 0.796032 0.0373366 0.722562 0.772405 0.0819656 
0.679784 0.648725 0.11934 0.697819 0.715647 0.0920632 0.639256 0.695134 0.120599 
0.658677 0.752784 0.129474 0.675674 0.784765 0.194922 0.73166 0.617067 0.165965 
0.665721 0.727946 0.234252 0.707337 0.661382 0.211195 0.693267 0.706462 0.155775 
0.682214 0.946472 0.0300644 0.702437 0.866158 0.0384231 0.745183 0.927785 0.0358779 
0.625202 0.774936 0.0796538 0.650879 0.836303 0.0961795 0.726257 0.837774 0.106179 
0.640635 0.85308 0.267984 0.646988 0.836667 0.165264 0.710063 0.8357 0.173662 
0.675115 0.904494 0.0947576 0.678889 0.962774 0.136616 0.75077 1.00052 0.0371966 
0.657417 0.995077 0.069715 0.63667 0.89659 0.148246 0.680784 0.867366 0.22006 
0.793637 0.943259 0.0866011 0.681655 0.943647 0.211062 0.7015 0.897307 0.15764 
0.661385 1.04613 0.263351 0.819262 1.01744 0.033559 0.845544 0.983586 0.117662 
0.748383 0.98988 0.105893 0.742808 1.00871 0.173823 0.713888 0.993755 0.262217 
0.76309 -0.556085 0.00199003 0.797326 -0.627244 0.0913367 0.731022 -0.635915 0.128285 
0.819853 -0.722837 0.154097 0.773465 -0.663129 0.269393 0.761952 -0.570836 0.271117 
0.760782 -0.20659 0.0304619 0.84128 -0.510797 0.00722197 0.860321 -0.254149 0.0208504 
0.830497 -0.570548 0.0786518 0.843457 -0.494621 0.140779 0.845719 -0.529311 0.267864 
0.8326 -0.401432 0.176053 0.881489 -0.299373 0.265376 0.846561 -0.457877 0.223134 
0.809703 0.0358202 0.0364042 0.843176 -0.150343 0.0282935 0.815957 -0.206135 0.0714227 
0.880457 -0.343368 0.116101 0.817377 0.0305848 0.106124 0.845784 -0.116458 0.125348 
0.818346 -0.0410779 0.148671 0.89418 -0.0982638 0.263837 0.852101 -0.3038 0.193866 
0.799173 0.0515909 0.253003 0.803259 0.156834 0.102786 0.795822 0.121339 0.0377921 
0.880277 0.0188296 0.113345 0.838766 0.100937 0.13007 0.872414 -0.0376451 0.195326 
0.732323 0.201132 0.266484 0.845564 0.207279 0.264159 0.848352 -0.00968421 0.260782 
0.816256 0.138285 0.263357 0.790481 0.253987 0.263663 0.762899 0.348922 0.039138 
0.744379 0.45201 0.031592 0.799039 0.188178 0.210741 0.836937 0.22378 0.109832 
0.741567 0.354994 0.267399 0.813184 0.265512 0.197836 0.798605 0.323495 0.267488 
0.739764 0.520173 0.0313674 0.814548 0.489307 0.118969 0.806651 0.420776 0.038459 
0.784743 0.567554 0.0312213 0.806875 0.372515 0.0883621 0.792396 0.40472 0.259954 
0.768535 0.584782 0.217624 0.773851 0.397237 0.13909 0.806754 0.481285 0.185032 
0.743536 0.552027 0.268265 0.754114 0.721808 0.0399845 0.769077 0.631415 0.0346147 
0.766947 0.601857 0.106636 0.740336 0.661621 0.107198 0.815924 0.572016 0.165212 
0.794246 0.640538 0.26009 0.761858 0.520053 0.220116 0.720463 0.702914 0.265521 
0.767034 0.677269 0.205903 0.720589 0.768466 0.266185 0.761142 0.814369 0.0398036 
[...]
POINT_DATA 1274
FIELD FieldData 10
VELOCITY 3 1274 double
0.27263634385 -0.65729074837 0.0017644838369 0.34457365525 -0.83886879372 0.065635973586 0.43321050316 -1.0828490813 0.028587145711 
0.3818348561 -0.94797782143 0.0039073387263 0.23402066322 -0.56827670801 0.00012635812223 0.33994508166 -0.80394651688 -0.34491584462 
0.50579176755 -1.1203612842 0.0062465265995 0.45204723143 -1.0978290401 -0.0011101409351 0.2547564462 -0.6271386262 0.0053186204628 
0.27076149594 -0.64510999175 -0.18439683995 0.30786384315 -0.74766939109 0.23707087888 0.3705845247 -0.89998969172 -0.015871625299 
0.26353722997 -0.62806846094 0.0036575776865 0.29074143884 -0.62224798463 0.067689156052 0.24971852879 -0.60672390428 -0.027730463752 
0.2868208784 -0.70185369029 -0.088513885103 0.25773763149 -0.62638053473 0.027320975305 0.27041460252 -0.62884102109 -1.1036442784e-06 
0.1278953997 -0.54894378567 0.0018533312668 0.29876463005 -0.79347122195 -0.0052233113571 0.26723052537 -0.63664253107 0.070166565818 
0.3396036214 -0.73243308696 -0.076095695063 0.25928221944 -0.62400955517 0.049580070591 0.27902177108 -0.65774582984 0.0090030603642 
0.25946755111 -0.63581609659 0.029236972779 0.43049971917 -1.0454993651 -0.061817168878 0.25785776083 -0.62619921241 -0.00040925591762 
0.25484271082 -0.61997461935 0.00056668586963 0.29400018932 -0.64379454614 0.013830593705 0.22697718233 -0.54752943768 0.00018592379492 
0.29333198864 -0.68098013796 0.13070500318 0.27894021098 -0.68571883235 0.10028600906 0.31732220268 -0.76697861403 0.1125636824 
0.38987998815 -0.75458338638 0.074903623216 0.25644155058 -0.62665172991 -0.016808086969 0.32485016709 -0.77875833602 0.10443793403 
0.3043148734 -0.65029990013 -0.016385216523 0.30285318216 -0.70109064292 -0.067571221503 0.34116410665 -0.73739594836 0.087127279121 
0.25918133616 -0.62922762557 0.12084306711 0.24673452589 -0.63881172524 -0.0007979448866 0.20167987333 -0.66194763803 -0.056745373408 
0.26244323713 -0.63665230099 0.084724547513 0.17062567544 -0.64591064849 -0.00029991336945 0.3493109341 -0.75768913843 0.063121085691 
0.30515659468 -0.61224995555 0.00095195120868 0.23964684594 -0.5819768189 0.048051786207 0.27705440428 -0.67290509163 -0.019396236337 
0.32394888204 -0.78674466806 0.00048375308183 0.71574281694 -2.0686330767 0.29345420916 0.69930104396 -1.698737621 -0.2166827114 
0.66364474127 -1.603101714 0.012791230838 0.47915725384 -1.1674019415 0.0024654986455 0.53150561403 -1.3230329305 -0.063790164587 
0.44419087288 -1.0787493113 -0.081609394072 0.36802469988 -0.89198958858 -0.069858365381 0.65555357039 -1.5920587427 0.020586416574 
0.43417937864 -1.0063750444 0.12891428782 0.24414760858 -0.59429416768 0.00031726729268 0.31601394094 -1.6544499468 -0.12357925812 
0.70172038939 -1.3281639711 -0.054409740711 0.49307772446 -1.1959367423 -0.00087119509627 0.32071917279 -1.2656057649 0.00057907364244 
0.4263880491 -1.0357268015 -0.089587312215 0.13076318181 -1.3471348867 0.074685609544 0.33873277879 -0.82820419609 -0.32057793729 
0.20141877118 -1.3144302676 0.10791667915 0.34584447596 -1.0500819731 0.0075473289121 0.35364304455 -1.2346124261 -0.041523382083 
0.43912497748 -1.0391122461 0.0012595201675 0.28256731947 -0.68654790365 -0.093384909862 0.28796026136 -0.69933359307 -0.087284040752 
0.015192901981 -1.0979436338 0.17304200663 0.44628778925 -1.2866327122 0.018342686606 0.1318946542 -0.79393015167 -0.014536321756 
0.2251275341 -1.0189532031 -0.15448295748 0.27988967418 -0.5820992334 -0.18222624502 0.33727853139 -0.6647196287 -0.032190908423 
0.27803806744 -0.90636855201 0.11808403902 0.18750966544 -0.72129798948 -0.23333854519 0.34070457861 -0.8274254425 -0.0045978982457 
0.40964423367 -1.0335634638 0.001309605702 0.60247012617 -1.1000446807 0.12638466205 0.1791031085 -1.0432382349 0.032171414838 
0.2293601731 -1.0496402924 0.12288004401 0.20048821577 -1.0609379616 0.039033744269 0.23636064378 -0.58607468625 0.0016118494396 
0.39623814291 -0.66308011493 8.0533095518e-05 0.16761950027 -0.70557920532 0.0025730503872 0.34280904787 -0.84142457075 -0.045657049385 
0.28349180938 -0.9742394056 0.082817222715 0.28992290772 -0.84606787761 -0.056393223122 0.14105025718 -0.94990208352 -0.027960762678 
0.19520087332 -0.52178521456 -0.00060237642117 0.27368864769 -0.63212335782 0.0017855086525 0.23006108904 -0.54205518205 0.0012333982111 
0.2491153466 -0.54242400023 -0.011555752213 0.11676983753 -0.62573657625 0.030709978775 0.16284741093 -0.65368163298 0.027676585505 
0.25611416772 -0.72441363854 0.0033020849624 0.2172267237 -0.80488722531 -0.022217260732 0.22890883613 -0.66765517859 -0.01040976654 
0.28652877469 -0.68835093064 0.019674843506 0.23113105185 -0.51277588695 0.0059408411645 0.18553401106 -0.59918732155 0.032139927611 
0.31940654597 -0.73202342767 0.012757520154 0.26919636507 -0.6354188747 0.030212917135 0.21789774592 -0.62787387964 0.09110170725 
0.35633631888 -0.66403430157 -0.0015935100071 0.37644029029 -0.74839170573 0.064053111981 0.29691577984 -0.70691266755 0.042906640407 
0.33364912168 -0.56984853072 0.00079460677237 0.34542182732 -0.75388159379 -0.035990620093 0.3326205884 -0.68892880305 -0.016830813987 
0.33218148739 -0.54066189293 0.01931760733 0.21562018367 -0.63191623522 0.030319773906 0.32286817844 -0.63702291627 -0.045658356987 
0.34637407206 -0.68067946277 -0.0024195654914 0.28079174891 -0.65836748687 -0.0066705789362 0.27424890099 -0.66978961061 -0.022851845295 
0.31628504841 -0.59811968627 -0.10516317266 0.32313990384 -0.60880432508 0.045356226563 0.33252216515 -0.77363101639 -0.017306748534 
0.25550312332 -0.61733974288 0.0030474477387 0.25133113452 -0.65340039553 -0.0057166459545 0.2301969595 -0.60255681289 -0.044693479283 
0.35076077652 -0.69482480864 3.7815080474e-05 0.25033235091 -0.66166215204 -0.018792118138 0.1635606664 -0.60723425152 -0.11766694389 
0.23739051094 -0.60755756356 -0.0035242655285 0.29564107742 -0.65053385246 0.017321159283 0.30910641098 -0.69175842939 0.060760564344 
0.19668349784 -0.69509084555 -0.12088426758 0.26217877403 -0.68020378342 0.049073385466 0.27754084702 -0.71385982844 -0.040678528571 
0.39539860405 -0.62193084327 -0.12235068597 0.260754842 -2.7936561277 -0.24388457178 0.31924607175 -0.77281612578 0.0037178970167 
0.28431632668 -2.9756252199 -0.13714200355 0.31118390391 -2.8918962872 0.014840723815 0.41438413196 -1.9161484219 0.2025683222 
0.074488391247 -2.7599650865 -0.06356176148 0.18750333955 -2.4580496302 -0.31573606012 0.37684320234 -0.92183055086 0.010833338104 
0.55601558647 -1.350323628 0.34900191263 0.5164610946 -1.1861520448 -0.012938129526 0.48689861163 -1.0893711788 -0.022763277183 
0.59415047943 -2.1756727811 0.18715391116 0.54827698619 -2.5828740572 0.020831999317 0.6304695406 -1.8156141092 0.077343356123 
0.40648023775 -1.2184670762 0.052690927098 0.59934427582 -2.1835646154 -0.097140058248 0.59172755358 -1.4211476407 0.014044334112 
0.62104392494 -1.798769632 0.087899241376 0.70679740345 -1.9624555775 0.26367935499 0.55047270651 -1.3368623475 -0.15097866342 
0.42594846425 -1.4437176951 0.00035851430506 0.28205009433 -0.88061186671 0.061643138637 0.33690281396 -1.2146304506 -0.010480167433 
0.16165422474 -1.1642050385 -0.053054789409 0.42245790232 -1.3597287332 0.08013071125 0.30245607552 -0.90420816747 -0.060133303377 
0.55612263931 -1.3032920634 0.002724827258 0.43377257269 -1.5907106367 -0.069884398747 0.62312181792 -1.1579894925 0.18281737267 
0.091405136156 -1.176457803 -0.0014107685188 0.22183086988 -1.1396338502 -0.13171661909 0.22919904538 -0.85247796741 0.059951628069 
0.421659691 -0.8314303356 0.031573678054 0.23198148299 -0.99354592541 0.10138305043 0.29426180746 -0.96164602608 -0.0018803884625 
0.12011801818 -0.98009474235 0.0015324175278 0.38924728355 -1.0010529891 -0.052350212215 0.25743193567 -1.1823604269 -0.10056235686 
0.26531114579 -1.0345385528 -0.0054042607408 0.21748218778 -0.85375583604 0.0011413670023 0.23214251391 -0.98945648864 -0.0097547501022 
0.50254831741 -0.93914490693 0.02336644924 0.19308968108 -0.55983305361 0.037351579028 0.10767690514 -0.94721724119 -0.00047049140095 
0.20963573343 -0.73747988833 -0.0017796080614 0.39005391463 -1.0151817708 0.0054675239549 0.15698198079 -0.74122719628 0.065083450702 
0.21374181968 -0.57761287185 0.00050754029539 0.30009084974 -0.97980343623 0.11489634124 0.31119871989 -0.74400525739 -0.057863002926 
0.22955381526 -0.73790620914 -0.03310208254 0.21340942133 -0.83808626039 0.044059365081 0.24514432896 -0.62333563386 0.00023955077517 
0.15221037738 -0.83355143674 0.096785124988 0.30930201956 -0.56458347826 -0.029354200144 0.32676899876 -0.60744793918 0.00084030063773 
0.29879365593 -0.62069424247 -0.0059676664844 0.29629697934 -0.60705480693 0.11481807165 0.33956705428 -0.71910944846 -0.04511087094 
0.3084852209 -0.70006862194 0.10197474 0.34628428712 -0.79101401158 -0.037088352311 0.25528629485 -0.67750231104 -0.0040670715417 
0.28226525975 -0.61484345682 0.075503039932 0.4000763272 -0.76990233827 0.00015112478462 0.26464454126 -0.63317083008 0.063666719289 
0.29685779814 -0.60833385698 -0.012694462225 0.10613732033 -0.71839903094 -0.00015709647374 0.37575116458 -0.6606075681 0.063038245762 
0.21590090834 -0.55432267939 0.00065750235699 0.28732291537 -0.66193211824 0.066010836121 0.28211864168 -0.83771370276 0.0027328012906 
0.31821410374 -0.62889126545 -0.083183709814 0.34312311301 -0.82237660166 0.12080794032 0.32848313858 -0.86146907509 0.099996650215 
0.38526712873 -0.70455083638 0.0032995423827 0.25542173942 -0.79039245568 -0.032255924989 0.23205684359 -0.84830356505 0.062089943529 
0.12903472162 -0.63505362535 -0.083570249346 0.20611992783 -3.0020735628 -0.22248331193 0.53642501617 -3.1832222254 -0.17978374997 
0.073672680331 -3.8228896975 -0.13127085995 0.36625764749 -3.2363361312 0.12109938758 0.293984571 -3.3908822605 0.12501646353 
0.56566093817 -1.4399421792 0.17077926532 0.25399313481 -2.5178363785 -0.21784371617 0.33104288213 -3.146331113 -0.039240335314 
0.22652611412 -2.7657480577 0.074212801407 0.96746245998 -2.0525611578 -0.054600876594 0.28694547738 -2.7843746518 0.048389780061 
0.57838524416 -2.5352088421 -0.0010984299651 0.20199985776 -2.7675536269 -0.15614956937 0.56514354711 -1.5297840753 0.013320296746 
0.41457931939 -1.8335221228 -0.092566778466 0.26057745124 -2.3568431188 -0.12048768011 0.64716606927 -2.0152349602 0.046274545557 
0.88043226278 -2.1921915119 0.10025831621 0.2437915644 -3.1353539947 -0.064774600263 0.94673130797 -1.8965392526 -0.0023655317767 
0.75399134912 -2.7719479653 0.091643067224 0.18262562245 -1.0995174245 0.00044432559039 0.1681375733 -1.5325051012 0.0002577910189 
0.086669203981 -1.6654134883 0.00074838974946 0.45799565026 -1.3048839611 -0.024217410741 0.37679285385 -1.3754251702 -0.11892834106 
0.0684690606 -1.104501011 -0.0021533073711 0.61434328556 -1.3996286959 -0.0004039995105 0.27081598676 -1.3618099308 -0.031686286625 
0.22085945791 -1.5916803073 -0.039749792061 0.59929277443 -1.7895876455 -0.10381840423 0.24201627453 -2.095897975 0.1987830206 
0.26262700775 -1.2041775882 -0.15539759129 0.1260959858 -1.3616000753 -0.1908351325 0.10510365365 -1.6854630099 -0.0057448274808 
0.17019220836 -1.6062763729 -0.081242021982 0.48519604996 -1.5030915087 -0.055399641163 0.030019173196 -0.85759058719 0.002714480167 
0.28366013346 -1.3142644991 -0.22900726962 0.46574476822 -1.2284334433 0.087866880459 0.35040947071 -1.0632874031 -0.041361352173 
0.22343324324 -1.1217731066 0.11183414296 0.11772052611 -1.386835756 0.0082446898618 0.10259995561 -0.89052681047 0.10241029084 
0.20264532763 -1.1464343752 -0.024086610813 0.075465743839 -1.7314825095 0.0091146127214 0.29610372444 -0.95595081235 0.0065305068814 
0.39713662626 -1.0886373027 0.076028172993 0.3108478848 -0.87251768229 -0.0039081503545 0.30669843169 -0.98210032106 0.030428624124 
0.32241458694 -1.1578656706 -0.049282144292 0.48449659311 -1.0725902229 -0.012660851151 0.33840328206 -1.1430950053 -0.1865947913 
0.38491103592 -1.1719500132 -0.10758101081 0.14835591923 -0.82030854394 0.12313464214 0.35743515852 -1.1659957189 0.1102003187 
0.12824128881 -0.87462378756 0.027785940604 0.29489951133 -1.0534589191 0.023502200988 0.36003613169 -1.1691324574 -0.03330558799 
0.30134831422 -0.61436607406 0.0026404393656 0.22961667648 -0.83869434165 0.011821659372 0.25345164259 -0.78865982912 0.00037450269667 
0.24953778886 -1.0015008267 -0.050038025957 0.20148133999 -0.85000768444 0.012902141103 0.20344324094 -0.94224016341 0.022780270714 
0.28365709768 -0.74334907915 0.004304818976 0.20275310046 -0.76511250566 0.015155621638 0.19785057931 -0.88116728469 0.030434076934 
0.26260013463 -0.85025819831 0.037343403011 0.30156423737 -0.86516898855 0.056061505151 0.31045863765 -0.79197965444 -0.0099211758449 
0.28602820794 -0.69467444734 0.10245673886 0.23114606085 -0.74734870634 0.039064316629 0.26236665723 -0.89525706382 -0.056811713537 
0.2351035439 -0.90152268798 0.025819677034 0.25428655656 -0.86407373059 0.0032124596545 0.30334773094 -0.86607262901 0.021796434802 
0.23043161921 -0.52774395115 -0.028436529683 0.32471833282 -0.84666747183 3.1166169329e-05 0.31357605843 -0.97636126983 0.073315858108 
0.23571688513 -0.87907052345 -0.026344951456 0.17088349942 -0.84774263239 -0.041162906021 0.0036574486 -0.76140407746 -0.0019152375239 
0.087499967499 -3.4648551625 -0.14323727716 0.038595192311 -3.9090698932 0.039892194851 -0.067797011276 -3.7500527557 0.054802538155 
0.022139117043 -3.9198646465 0.04194649673 0.097041702014 -3.7210041095 0.030406891665 0.092069235644 -3.6096029949 0.11464030793 
0.073852680533 -2.7292118177 -0.084459589863 0.13710570859 -3.8509807051 -0.18889387026 0.41663800511 -3.13495829 -0.21741357934 
0.044074484592 -3.9077492931 -0.10508652469 0.2105051094 -3.6288316158 -0.1682979723 0.18575795776 -3.6656776955 0.0058259799981 
0.13826562231 -3.4132233562 0.093808547821 0.33325262438 -3.1202089713 0.024616143987 0.28552432654 -3.5999803863 -0.019558228437 
0.96105768395 -2.0362274625 0.00058253399222 0.083788698565 -2.9195825147 -0.090729670906 0.26812282395 -3.2115920314 -0.25415141148 
0.35258110539 -3.2288030935 0.05283160133 0.58674281495 -2.2283257 -0.1347603739 0.16447083009 -2.5997096003 -0.09536764202 
0.45898245651 -2.3186908094 -0.044673012552 0.41119577947 -2.6507972866 0.049014192318 0.2679044573 -3.2865313891 0.065984446603 
0.78044876224 -2.2823542982 -0.030728849178 0.4589473137 -1.9864822152 -0.008893042665 0.20477150134 -1.854527584 -0.016971353399 
0.48903774764 -2.5928753142 0.30354948696 0.65045026526 -1.8779711615 -0.2460850695 0.46263440955 -2.6599256027 0.13029389873 
0.6715663893 -1.2755761176 -0.035911213417 0.040838807155 -1.4997775506 0.0038339481448 0.50675173539 -2.5181713785 0.086459139546 
0.28792515726 -1.8183743949 -1.0564902068e-05 0.17325269944 -1.4738876796 -0.00046010187362 0.15655798793 -1.5122194893 0.0036533774547 
0.20775460887 -1.192040025 0.0088707526998 0.16570934043 -1.7657943363 0.017255707939 0.48361848576 -1.9531361787 -0.13102152842 
0.20119645559 -1.612629571 0.0051015789434 0.36808633258 -1.3950645475 0.11995285113 0.26814934349 -1.4909130905 -0.00079514100664 
0.27311748889 -0.86145690178 -0.0041354118873 -0.073919951835 -1.4099766501 0.3546696937 0.10358765462 -1.3931067462 0.0017525524616 
0.34328153457 -1.3135923265 1.3160649288e-05 0.042535311939 -1.362251777 0.042749440424 0.13450978228 -1.5465312524 0.091113594645 
0.33026559308 -1.1449243362 0.015063457762 0.068634073484 -1.5900690508 -0.084553054142 -0.11940330612 -1.4852263322 0.34346875002 
0.41191735778 -1.120047099 0.12280296481 0.23338015623 -0.95854546222 -4.1637867649e-06 0.26945766723 -1.3277856051 -0.0020635874077 
0.40854159128 -1.0758309446 -0.00088824559424 0.31048101818 -1.0934740674 -0.016142672865 0.20531423912 -1.0339488438 0.013024367911 
0.030268451717 -0.99630024144 0.0045353958188 0.19492386966 -1.1461198872 0.042489695348 0.23734850829 -0.8525818258 -0.0015087169009 
0.2782684696 -1.0506388292 -0.19640484433 0.18481643541 -0.84887358907 0.067919195032 0.23956000318 -0.87129114518 0.0066479841226 
0.23748969118 -0.87736773773 0.025883763914 0.20392026374 -1.1219913617 -0.031246622809 0.09370993558 -0.85204667756 -0.042169293786 
0.25233324984 -1.1093466789 0.027717675582 0.34029154886 -1.0989657643 0.035855098078 0.2006779384 -0.97805912559 0.01132909897 
0.34637586447 -0.77538182326 -0.059338652177 0.2605767046 -0.9582126489 0.0004856876323 0.222406054 -0.95926699804 0.02517951292 
0.21655255805 -0.88514633844 0.0070213947303 0.24741766913 -0.87987203605 0.022961052931 0.13270836217 -1.0361655029 -0.080921494749 
0.26282199341 -1.0673988906 -0.035667914056 0.25793943521 -0.87820757494 0.10719000797 0.19224003521 -0.91568074428 0.028174252785 
0.1734733672 -0.71652210292 -0.0048313012633 0.25422937668 -0.83223397022 -0.051654382334 0.24402951906 -0.74104875401 0.041364257329 
0.21547920183 -1.008529075 -0.093897847938 0.070412660971 -0.97098805694 0.047286371279 0.043106273839 -0.72182587382 -0.076864206421 
0.20383270829 -0.9013721442 0.15194451241 0.25966925819 -0.90284544975 -0.027973650742 0.23032271279 -0.8447248585 -0.097782008199 
-0.010550022953 -0.52116478111 -0.00066544974843 0.26751654228 -1.0042962725 -0.012753354888 0.12878593738 -1.1240214978 0.18622431816 
-0.093257962062 -3.8868552842 0.013687005682 0.039895450967 -3.9140538008 0.016366272578 0.033306254486 -3.9080723537 -0.1340586523 
-0.035044149237 -4.0322210591 0.07066340198 -0.0023482729465 -3.9679488831 0.09339256848 0.071711042605 -3.8909154803 0.034069671075 
0.11505473313 -3.7234762128 0.080155344322 0.064629840839 -3.9006348072 -0.091313161959 0.18198588153 -3.6996285925 0.014459001136 
0.13627056096 -3.2191951725 -0.10052475736 0.058566776043 -3.8375306516 0.048510461195 0.089927278651 -3.802444341 0.0830923096 
0.10009528841 -3.7174191535 -0.019890480291 0.15031082096 -3.7187494107 -0.060737484796 0.022422236141 -3.9065722624 0.16409331621 
0.20183448859 -3.7398267023 0.065426051016 0.20402143541 -2.9574095671 -0.29324369698 0.045437227856 -3.2431507983 -0.071376396705 
0.14222221962 -2.9726686293 -0.097647217665 0.23108712048 -3.0937364058 -0.086000180451 0.22480090963 -3.5169682373 -0.010569155525 
0.18520471847 -3.0296422716 -0.16374993301 0.12241124241 -3.5219841711 0.005202717809 0.26439099016 -3.4855300782 0.093866028013 
0.13539701157 -2.7584366832 -0.16113266023 0.12050255745 -2.953794251 -0.04043337918 0.65549243859 -1.5572369367 0.097042644938 
0.033362503499 -2.9292055895 -0.0017657166692 0.17875830698 -2.5443469118 -0.13032732089 0.55573086878 -1.6947011093 -0.0020296763862 
0.045738836057 -1.9929377246 -0.018399054447 0.11290536037 -3.0174034158 -0.015568238857 0.45183544842 -2.1480120665 0.050575332574 
0.51489024644 -1.4788589821 0.00097379174228 0.20112800237 -1.8478723919 0.0029530848674 0.39516494457 -1.7933924475 0.04892384707 
0.16700288349 -1.8339484607 -0.063320095452 0.28387301749 -1.7567937717 0.087202856069 0.14892612188 -1.8010575058 0.032112595072 
0.12850346865 -1.7057815158 0.0081918913618 0.43080939542 -1.6507047325 -0.25588455149 0.11668052849 -1.3871539019 0.0035033650712 
0.074873504636 -1.6345032986 0.0016022266502 0.090658992137 -1.621670811 0.017269964703 0.13304364707 -1.4177985938 -0.26533451275 
0.31931680866 -1.5405640052 0.071815473874 0.093591794919 -1.3431237388 0.26848421421 0.35699158934 -1.3835333372 0.1546705649 
0.070945639647 -1.1048085955 -0.00026078990248 0.079782801101 -1.6274217309 0.097154362716 0.21088554986 -1.1001377717 -0.0026747822838 
-0.032759287621 -1.5350454436 0.14633117891 0.26229512781 -1.2643085758 -0.14820585943 0.30427570275 -1.1709742145 -0.030644633844 
0.055526851565 -1.3855416376 -0.0084608640176 0.22064773504 -1.2792361564 0.14847175255 0.074384355088 -1.1212404042 -0.0052869217357 
0.12217990567 -1.1549619821 -0.063250536442 0.17582879727 -0.89102905328 0.0024700871723 0.20974983205 -1.2348125728 -0.1706664475 
0.047503965868 -1.091517432 0.072106204866 0.18679413854 -1.158867185 0.057411330707 0.17394365152 -0.9150162074 -0.1498089833 