# vtk DataFile Version 4.1
vtk output
ASCII
DATASET UNSTRUCTURED_GRID
POINTS 1274 float
0.759577 -0.222959 0.0288604 0.747739 -0.0750189 0.0909816 0.75862 -0.384608 0.273034 
0.773626 -0.41954 0.0774692 0.647884 0.211494 0.0324036 0.692671 0.120319 0.106289 
0.776756 -0.238204 0.182923 0.733629 0.000207714 0.268581 0.607644 0.326133 0.0436636 
0.615159 0.286355 0.110213 0.750701 -0.0754486 0.213145 0.681069 0.135929 0.265552 
0.560999 0.421541 0.0320023 0.540531 0.490319 0.0392318 0.59792 0.352396 0.138854 
0.624471 0.28654 0.19879 0.553034 0.459861 0.213483 0.510379 0.562202 0.0387455 
0.576581 0.379222 0.0777621 0.692684 0.250453 0.0970492 0.560438 0.441973 0.140104 
0.69002 0.30573 0.22667 0.525647 0.515034 0.265121 0.593059 0.344086 0.227278 
0.477503 0.626108 0.0328822 0.57267 0.393729 0.191973 0.496306 0.598958 0.259955 
0.452803 0.688751 0.0376482 0.60073 0.54786 0.0968594 0.527001 0.527707 0.106443 
0.524405 0.690504 0.0663632 0.525138 0.505578 0.172476 0.506115 0.562537 0.196698 
0.581452 0.680511 0.10509 0.629523 0.592823 0.0437302 0.498833 0.606441 0.109738 
0.67475 0.5499 0.100868 0.47885 0.620727 0.18254 0.56453 0.534643 0.213231 
0.43125 0.739913 0.0802291 0.547616 0.626906 0.0359851 0.558915 0.575056 0.149788 
0.456716 0.68435 0.185169 0.463716 0.666178 0.26484 0.461595 0.681711 0.110613 
0.625151 0.665105 0.042072 0.44114 0.733394 0.240323 0.431516 0.73281 0.147699 
0.755567 -0.344282 0.00544704 0.764496 -1.29613 0.24707 0.692679 -1.24901 0.0722875 
0.740766 -1.32319 0.168664 0.779591 -1.22801 0.332658 0.714716 -1.31226 0.360147 
0.849414 -0.867081 0.197298 0.814683 -0.443119 0.198693 0.737461 -1.25695 -0.0310887 
0.840161 -0.909407 0.143759 0.733726 0.0175806 0.0381111 0.847461 -1.18171 0.0230792 
0.863236 -0.979615 0.0945698 0.849528 -0.976662 0.274192 0.793625 -0.450993 0.282681 
0.795597 -0.632476 0.195213 0.844904 -0.446438 0.0917945 0.680933 0.139462 0.0359648 
0.782473 -0.21933 0.102057 0.814634 -0.0892867 0.182148 0.85437 -0.852682 0.103318 
0.75154 -0.107075 0.269685 0.707605 0.0624747 0.140053 0.688945 0.112154 0.181579 
0.74568 -0.0987492 0.152608 0.865543 -0.822639 0.246623 0.740887 -0.00557666 0.137932 
0.822646 -0.123164 0.11084 0.715221 0.224948 0.0363369 0.770537 -0.140695 0.0304044 
0.765202 0.0541119 0.16631 0.649887 0.202757 0.0952197 0.616484 0.282323 0.26973 
0.80621 -0.0598615 0.262286 0.877177 -0.508634 0.261977 0.858697 -0.205571 0.207703 
0.728278 0.0172911 0.206511 0.78786 -0.16761 0.205528 0.67466 0.288053 0.0384321 
0.745812 0.287381 0.0320702 0.790262 0.0595149 0.0340921 0.657881 0.203098 0.164073 
0.753569 0.0506078 0.0963676 0.702953 0.241944 0.260663 0.647784 0.208208 0.233005 
0.626699 0.399962 0.0373645 0.598948 0.531571 0.0325907 0.677199 0.450501 0.0331436 
0.627221 0.418149 0.110608 0.653117 0.358119 0.193506 0.662889 0.340391 0.0945825 
0.64028 0.371263 0.265546 0.574436 0.406119 0.261481 0.717211 0.347409 0.268896 
0.717908 0.339403 0.178715 0.607905 0.466964 0.0324522 0.590788 0.482181 0.0913839 
0.682988 0.402956 0.0749345 0.601626 0.50683 0.15757 0.63019 0.427508 0.21303 
0.653207 0.481114 0.257499 0.593017 0.511842 0.267486 0.69496 0.397804 0.235516 
0.724161 0.561535 0.0385423 0.693729 0.484558 0.084523 0.659701 0.473056 0.135825 
0.560302 0.570732 0.269157 0.758426 0.616701 0.17124 0.691533 0.543054 0.26735 
0.652656 0.532924 0.206687 0.629176 0.569647 0.2635 0.699057 0.517643 0.159618 
0.582817 0.605061 0.211562 0.805146 0.588113 0.0491091 0.750292 0.526049 0.102382 
0.687602 0.632529 0.0344494 0.578326 0.611905 0.0972601 0.628201 0.574698 0.152152 
0.583187 0.66663 0.260952 0.653456 0.608501 0.207288 0.627919 0.668539 0.202685 
0.679229 0.61839 0.266118 0.756857 0.665492 0.036271 0.553536 0.641485 0.154345 
0.707732 0.649908 0.202589 0.525941 0.651497 0.217959 0.683589 0.609604 0.137266 
0.6278 0.643077 0.132364 0.610532 -1.31238 -0.0331518 0.769006 -0.535916 -0.0133227 
0.641635 -1.40427 -0.348708 0.569343 -1.30257 0.262921 0.74429 -1.34788 0.423287 
0.547482 -1.35904 0.181472 0.658207 -1.2911 -0.208392 0.85268 -1.19478 -0.0933222 
0.715336 -1.08479 0.0968417 0.852228 -0.795517 0.310728 0.763528 -1.06626 0.295924 
0.642879 -1.29827 0.249532 0.718677 -1.37215 0.315576 0.73109 -1.26172 0.131689 
0.809651 -0.827715 0.0294854 0.727211 -1.31267 0.0422504 0.858447 -0.623275 0.266524 
0.894098 -1.19687 0.108052 0.832534 -1.18606 0.208947 0.858083 -1.04735 0.167387 
0.862379 -0.693158 0.285098 0.838002 -0.350551 0.0294085 0.801468 -0.66323 0.0892663 
0.811691 -0.188692 0.150451 0.80458 -0.386718 0.150017 0.823982 -0.285168 0.270735 
0.924472 -0.624806 0.353362 0.934492 -0.872418 0.273861 0.769198 -0.337058 0.19941 
0.842085 -0.294936 0.161302 0.837027 -0.589963 0.146302 0.833104 -0.0920181 0.0378111 
0.772081 -0.0580291 0.0267677 0.796674 0.0181312 0.215185 0.712552 0.0697758 0.259899 
0.785315 0.0676689 0.265224 0.698623 0.168445 0.210891 0.872407 -0.497475 0.195333 
0.879315 -0.108814 0.157265 0.747037 0.149444 0.0660167 0.811915 0.00325344 0.141482 
0.789682 0.210272 0.0409018 0.694284 0.354966 0.031621 0.7638 0.292279 0.260435 
0.780484 0.364243 0.265552 0.742644 0.128731 0.153181 0.668656 0.290846 0.14309 
0.741158 0.410691 0.0386303 0.71974 0.189257 0.12355 0.710453 0.461676 0.204174 
0.681047 0.412836 0.157736 0.736475 0.298597 0.126323 0.719851 0.486873 0.269176 
0.716736 0.249968 0.183608 0.66571 0.517423 0.0348268 0.790657 0.522164 0.0335725 
0.806376 0.455358 0.037559 0.734197 0.486683 0.0328713 0.759929 0.457116 0.0883909 
0.728236 0.38845 0.118071 0.770247 0.297334 0.1888 0.708007 0.576874 0.18897 
0.811754 0.65228 0.0858284 0.8796 0.584954 0.0646357 0.792587 0.588635 0.116743 
0.720182 0.464593 0.135373 0.782407 0.47901 0.268674 0.826087 0.644347 0.188105 
0.7522 0.61108 0.260314 0.762005 0.49885 0.168305 0.754894 0.385318 0.205645 
0.754943 0.536271 0.231492 0.96176 0.558115 0.115814 0.88958 0.57221 0.130385 
0.73383 0.618416 0.0896969 0.886266 0.554278 0.225715 0.813478 0.572342 0.185904 
0.909855 0.495743 0.216318 0.579114 -1.41529 -0.268895 0.607347 -1.40611 -0.205846 
0.451868 -1.4135 0.0741693 0.831762 -1.2652 0.52932 0.256341 -1.35765 0.205234 
0.64834 -1.30041 0.0323356 0.731689 -1.29872 -0.299471 0.575736 -1.36733 0.106625 
0.520051 -1.35733 0.485231 0.844658 -1.37874 0.223985 0.557272 -1.37216 0.355089 
0.72079 -1.29096 0.46834 0.594279 -1.30611 0.186211 0.812058 -1.2482 -0.00270368 
0.829363 -1.23164 0.102287 0.697834 -1.37045 -0.00490475 0.815531 -1.30975 0.19287 
0.849882 -1.28222 0.357037 0.485184 -1.33683 -0.0108156 1.00398 -1.36821 0.267545 
0.700957 -1.38187 0.234258 0.840872 -0.542052 0.0602216 0.857196 -1.10967 0.0149127 
0.857902 -1.13599 0.120603 0.914353 -0.872763 0.178881 0.910221 -0.966469 0.146237 
0.835802 -0.387627 0.253304 0.865761 -1.10672 0.255988 0.870665 -1.12355 0.190951 
0.907903 -1.04734 0.212844 0.99199 -1.1552 0.0643459 0.705176 -1.28337 0.21848 
0.868306 -0.519346 0.121306 0.837468 -0.773933 0.075431 0.914335 -1.15423 0.0552667 
0.905374 -1.07444 0.105356 0.930979 -0.987554 0.242111 0.860629 0.045802 0.268479 
0.864882 -0.690122 0.139144 0.846388 -0.251988 0.102266 0.816059 0.133643 0.0393948 
0.902749 -0.443321 0.113468 0.864968 -0.673971 0.0671747 0.881188 -0.388242 0.160471 
0.851649 -0.341883 0.204417 0.884427 -0.735624 0.196269 0.737587 0.174697 0.265151 
0.768212 0.106069 0.209327 0.814793 0.285216 0.0372545 0.847436 0.117715 0.102898 
0.807431 -0.0484731 0.0963176 0.854493 0.0161146 0.0957876 0.784839 0.104951 0.0964366 
0.781785 0.161683 0.119921 0.784609 0.235826 0.158616 0.90113 -0.299174 0.194937 
0.759523 0.188293 0.203859 0.853216 -0.017099 0.231583 0.822513 0.0741511 0.142482 
0.853665 0.53995 0.0301369 0.815503 0.382374 0.038373 0.874116 0.47752 0.0358778 
0.760001 0.236732 0.0989992 0.758641 0.343856 0.0701504 0.811417 0.286888 0.113225 
0.746493 0.421485 0.267978 0.779578 0.349961 0.146274 0.829807 0.278461 0.180732 
0.794343 0.401393 0.106042 0.813181 0.470373 0.129857 0.922818 0.520194 0.0695056 
0.828862 0.533301 0.0937862 0.765308 0.430082 0.159313 0.810209 0.343289 0.20979 
0.919979 0.408602 0.1107 0.815964 0.466174 0.206434 0.819462 0.395974 0.16994 
0.828178 0.60564 0.25504 0.988821 0.504852 0.0464968 0.921262 0.465568 0.155955 
0.876773 0.480172 0.104149 0.864017 0.513673 0.167104 0.828763 0.531487 0.257209 
0.450855 -1.41153 -0.08612 0.263069 -1.4142 0.0192563 0.342538 -1.41021 0.379615 
0.446183 -1.41424 0.233351 0.366647 -1.40822 0.508032 0.424348 -1.41552 0.441452 
0.475143 -1.35944 -0.182807 0.527168 -1.4065 -0.314331 0.683102 -1.35208 -0.344113 
0.222371 -1.33422 -0.190735 0.467485 -1.40564 0.138964 0.655535 -1.4091 0.449532 
0.478462 -1.37148 0.311806 0.664363 -1.37779 0.360826 0.455575 -1.399 0.49501 
0.838876 -1.35191 -0.117894 0.584822 -1.3391 -0.2205 0.640199 -1.37491 -0.144775 
0.881787 -1.41015 -0.0965997 0.768768 -1.34685 -0.0797781 0.638416 -1.3686 0.136155 
0.698145 -1.32469 0.274948 0.839765 -1.33992 0.450291 0.589075 -1.36963 0.289728 
0.905468 -1.35333 0.312309 0.805533 -1.29635 0.1194 0.782839 -1.31499 -0.0119858 
0.788358 -1.37211 0.160768 0.85748 -1.34429 0.1433 0.849623 -1.34824 0.36958 
0.828439 -1.20954 0.290873 0.835105 -1.27756 0.2617 0.890422 -1.27095 0.47893 
0.715181 -1.2586 0.280807 0.889395 -1.18237 0.270701 0.921261 -1.02085 0.0426816 
0.883312 -0.585108 0.0244969 0.777965 -1.24398 0.186385 0.894898 -1.23826 0.043581 
0.884113 -0.93082 0.24426 0.90496 -1.17984 0.18226 0.915162 -1.05245 0.31105 
0.847516 -0.467547 0.0292136 0.892357 -0.625291 0.168575 0.886747 -0.726293 0.0224109 
0.832918 -0.213166 0.0266144 0.936636 -0.962278 0.0878489 0.914748 -0.747086 0.295082 
0.929828 -0.380347 0.22057 0.885723 -0.892074 0.0215961 0.890621 -0.561758 0.223315 
0.881179 -0.270739 0.250851 0.89595 0.130887 0.0399847 0.827897 -0.00370998 0.0346154 
0.872578 -0.347803 0.096631 0.865363 -0.174041 0.118767 0.941973 -0.437954 0.175103 
0.867208 -0.120666 0.262233 0.903176 -0.453427 0.253638 0.804955 0.170563 0.252064 
[...]
POINT_DATA 1274
FIELD FieldData 10
VELOCITY 3 1274 double
-0.15246856505 -2.8502741487 -0.16092244279 -0.19371355472 -2.2152312178 0.026705773049 0.179301001 -3.4434696197 0.033038462214 
-0.03008728442 -3.5820864209 -0.16926484585 0.07787367076 -0.1810512834 0.020128898392 0.4804525496 -1.582668446 -0.15312892618 
0.20977332259 -3.1872240318 0.23789527621 0.4806223383 -1.2640913332 -0.0037233668564 0.36736651031 -0.86832645805 -0.09601504492 
0.47563935047 -1.1551241889 -0.27305827863 0.33817558782 -2.3109452111 0.0044830103828 0.24374286331 -1.0116022357 0.12518049366 
0.46506580636 -1.1294455806 0.0018169975364 0.42044731806 -1.0212694705 -1.1466377376e-05 0.41523195338 -0.98707689947 0.023940079292 
0.41339287685 -1.0310880609 -0.14206591979 0.43319294306 -0.9814574347 -0.013029146635 0.42130615436 -1.023416226 0.0060979270321 
0.41268014646 -0.99254097341 0.02709831787 0.48037782829 -1.1761234446 0.03314023951 0.36009083659 -0.87952688407 -0.042940173637 
0.67539001203 -1.3083052716 -0.23027394337 0.41804230104 -1.0258436736 0.0040945248027 0.39449026156 -0.95802555651 0.030662046664 
0.44751718244 -1.0868274921 0.0050894390755 0.40297467306 -0.96337442792 -0.00076928167892 0.41363542814 -1.009727483 0.046498235393 
0.43264491867 -1.0507091356 0.03113546842 0.45771463345 -1.1362939593 0.013024461636 0.37885072305 -1.0707128152 0.020061546822 
0.38178351834 -1.045600793 -0.026819846844 0.38863595248 -0.94756688758 0.060136726168 0.42306450442 -0.9182983104 -0.0023315849116 
0.31036557436 -1.1911439881 0.040664695288 0.48907763154 -1.0731079638 0.060286751704 0.40442437739 -1.0464877403 0.0082250317055 
0.40570971855 -1.2241841526 -0.0043217584585 0.38549579224 -0.93622068609 -0.013812011646 0.34775349472 -1.0113110338 0.12462660223 
0.40662887807 -0.98750926962 0.12753779092 0.43744233912 -1.0352408998 -0.0022434063262 0.44445864541 -1.0852384069 -0.013958563127 
0.35969240213 -0.94664784833 0.03296808422 0.41426818605 -1.0061103194 -0.00022735377987 0.42292952023 -1.0273165046 0.034910469692 
0.47570410578 -1.0741132869 0.052311907586 0.38243363779 -0.98710327564 0.07862614912 0.40510711259 -0.96186904233 -0.020465442551 
-0.003988882379 -3.2772820637 -0.24874007945 -1.6244485467 0.36145528674 0.054625195246 -1.2958015977 -0.7740387058 -0.27242686987 
-1.361174138 -1.2679024405 -0.45218113472 -0.31027114896 -2.560337019 0.9407983671 -1.8072779496 -0.8479904394 0.76134919751 
0.37529808913 -4.7976109027 0.0042810050522 0.48682185192 -3.629262187 0.024444894657 -0.8493433371 -1.2377293993 -1.0720521514 
0.38179319469 -4.7238618356 -0.024881009168 0.58538612316 -1.421653832 0.016035733168 -0.92051484478 -2.061049645 -1.0365218695 
0.25258945647 -4.9285106078 0.0042384684154 0.25142678501 -5.0027240798 0.12387590706 0.22851009029 -3.4687840925 0.10592216036 
0.16066103907 -4.0599032829 0.16428051419 0.034287341507 -4.1954215007 0.066544075268 0.35259071074 -0.85629176469 0.013326373413 
0.36264446833 -3.0511623291 -0.090327389635 0.43440961728 -2.6775893887 0.13602638435 0.41956191363 -4.732951642 -0.03214274465 
0.23105666325 -2.1955372311 0.084859288148 0.62252717579 -1.5118505148 -0.094646875658 0.56787619866 -1.3854240164 0.23851179093 
0.2054185905 -2.3132305719 0.03198138079 0.1818799602 -4.9124626616 0.25577000793 0.50072530583 -1.9135221656 -0.060370508722 
0.47108833052 -2.948392151 0.13332277237 0.34652063875 -1.2216804087 -0.0015209186073 -0.079201179854 -2.8079743903 -0.18808017675 
0.60836723246 -1.9589319129 -0.037861195719 0.44696539646 -1.1137460018 0.012585942238 0.48274792339 -1.1723878816 -2.998961843e-08 
0.42246435545 -2.3877023779 0.13690787984 0.35042901624 -4.0752185414 0.078522798168 0.47556584308 -3.2864742646 0.11688005967 
0.51142552744 -1.2420334798 -0.032356644791 0.39919464943 -2.9079651031 0.14113258781 0.2266172989 -1.2124928016 8.9686831697e-05 
0.32663049912 -0.82468164702 0.050730427909 0.6997497707 -1.5745910811 0.029117661395 0.38271499971 -0.88774422225 0.021096954243 
0.82762119881 -1.7412944356 0.094249248548 0.59525061221 -1.2385838244 -0.01147557715 0.35358886584 -0.85007480275 -0.020484015105 
0.40726318777 -0.99643972836 0.0053155486753 0.42848268341 -1.0319540754 0.00064409616449 0.1787034433 -1.2707395126 0.0015020544172 
0.34551941805 -0.96142962438 -0.046145849174 0.68481296402 -1.1322739257 -0.018533505667 0.43953196076 -1.3061077645 -0.047154105942 
0.41462361174 -0.94505418054 -0.0025255046939 0.40223251041 -0.97690055241 0.0014714023017 0.52122231074 -1.3760479813 -0.0029884589524 
0.66778138564 -0.91651035441 0.0287117346 0.43194403 -0.98748492525 -0.0066034824847 0.45150873975 -0.88962585775 -0.026289819668 
0.37866253064 -1.1764059138 0.067269383443 0.40666270214 -0.9537722371 0.13485763533 0.13592827356 -1.2658175625 -0.1001906659 
0.2700726633 -1.3888116315 0.0087327182355 0.4169455992 -1.2371375599 -0.00039273438777 0.67186875435 -1.2573433589 0.080081119144 
0.3872668478 -1.1853673409 9.1842706993e-05 0.31845753378 -1.259829344 -0.052913724568 0.34211022703 -1.0009457939 0.05409767177 
0.41409691842 -1.0234551551 -0.00011526122808 0.35855379123 -1.0704227055 -0.072784279647 0.23008513546 -1.1211835554 -0.091560202741 
0.39081608802 -1.2073018154 0.16461533348 0.22452379732 -1.1116879233 0.035092190355 0.34769458781 -1.1042599844 0.085209476513 
0.39321471123 -1.0419886527 -0.017166978768 0.4966989832 -1.0270713869 0.013334612321 0.53146916164 -1.111808367 -0.025069787178 
0.5269826818 -1.1392378081 0.015895987185 0.39213712498 -1.1576401973 -0.040771085862 0.47615770231 -0.98660898849 0.0074291986743 
0.37626374731 -1.0580761193 0.0018461316014 0.39264200475 -1.0568262167 -0.020820884807 0.42579165224 -1.0305883404 0.039214894202 
0.37290193997 -1.1963280121 -9.1715281887e-05 0.61177552452 -1.2782615727 0.00033168762416 0.50520007975 -1.0778785665 -0.053831088863 
0.41650592449 -1.0808798005 0.035170033649 0.37745348084 -1.0343859143 -0.0066631577925 0.37701185608 -1.1608245624 -0.10609332009 
0.37219388786 -1.1507118422 0.0082343185387 -1.1877682267 -0.19242757869 -0.67687789484 0.057383606976 -3.8238087174 -0.30977421271 
-0.52728025439 -0.34860958701 -0.38054113408 -1.7582495051 -0.14336525727 0.058466537647 -1.6040953168 0.60181349385 0.444720434 
-1.6895574613 -0.38986379902 0.079230810198 -0.76198269433 -1.1893357541 -1.1737536758 -0.53028410861 -2.4424456313 -1.9514211636 
-0.089577781939 -5.0201160291 -0.04594144832 0.44125373783 -4.5583074038 0.25117006444 0.075447171858 -4.9730970952 0.10675642831 
-1.6058767178 -0.30344536123 0.61178177488 -1.437730255 -1.2195928117 0.41366024631 -1.1249676347 -1.1318204648 -0.43791450646 
0.15482821332 -4.6313248725 -0.041966309897 -1.3831153265 -0.49957970091 -0.85493173866 0.38343018189 -4.3032028547 0.31631543468 
-0.51428649947 -1.8995825007 0.44544590887 -1.1671572704 -1.8617909878 0.76022734587 -0.23484622475 -4.6913543033 -0.50227633584 
0.37867602382 -4.4062655172 0.12641129578 0.18991406459 -3.737750153 -0.10422316919 0.1349412174 -4.3709349301 -0.034044581615 
0.25126981938 -3.1999622759 0.12003190203 0.19340128237 -3.6557337924 -0.021243755228 0.34903727567 -3.4473746498 0.061614643025 
0.52740551351 -4.2951422535 0.54497139422 0.24491479292 -4.9169318585 0.23881882644 0.2128959807 -3.3568384979 -0.11318448423 
0.43130290816 -3.6035810266 -0.0063815048689 0.24248817446 -4.3331240138 0.1004801177 -0.077527821599 -2.7829352167 -0.054762897691 
0.054976149646 -2.5497193697 -0.23987363012 0.39785999446 -2.0152847699 -0.0080055732724 0.49220748873 -1.1953610979 -0.054119059168 
0.479512024 -1.7590418333 0.069288011571 0.3417016081 -1.1899885244 -0.061189068094 0.383181867 -3.969499347 0.090892458388 
0.40042263419 -3.1527326061 0.10591585073 0.48000008011 -1.3310299442 -0.1560492938 0.56522690499 -2.3316268625 0.22606025051 
0.27387583222 -1.64826039 -0.095021623199 0.23128524828 -1.1640670081 0.016809024211 0.70199435688 -1.3328875329 -0.0038054348996 
0.50898261857 -1.2569974979 0.0044434687008 0.52571717446 -1.6884256365 0.0038679212932 0.41177890478 -1.4524765262 -0.18795149054 
0.34492336162 -1.0633614728 0.0063459619394 0.43233068385 -1.5538213059 0.21217797627 0.43032884597 -1.229210027 0.043789972791 
0.4656520899 -1.0323083729 -0.048087123675 0.30901247959 -1.0787212943 0.058172319288 0.32332470793 -1.073366953 -0.0016673547507 
0.87404657636 -1.463730287 0.012061876634 0.41747442619 -1.2261912703 0.0050271057982 0.13034096222 -0.94752977404 0.00032585282121 
0.20370729872 -0.9206461573 0.17861888799 0.36209827735 -1.4192918873 5.9098585562e-05 0.35833844118 -1.1610106165 0.096321462002 
0.14051762476 -1.7011529977 0.19093402702 0.80904070389 -1.315873445 0.017944051934 0.38885587597 -1.049908196 -0.037926439513 
0.69282942013 -1.0317687271 -0.0090626912754 0.69476154836 -1.0938000519 0.035254686117 0.48015570627 -1.2563132743 -0.0068941589819 
0.31059226596 -1.0985313514 0.038416021586 0.23094079633 -1.216204667 0.00037893830855 0.59589607419 -1.0732748234 0.061137256631 
0.38014471531 -1.1253712886 0.00065804400342 0.3523027678 -1.15817478 -0.0094935223952 0.74589287529 -0.98964253184 0.0072679029229 
0.33631911048 -1.1113619061 -0.040599288924 0.83820953413 -1.8699201661 0.3538164499 0.6461819693 -1.1108692946 0.037852690636 
0.49417876796 -1.2120701841 0.0098395668344 0.27083267494 -1.2458487477 -0.29522364064 0.35059780559 -1.0401130938 0.085241139032 
0.24099337789 -0.88913121524 0.055385666318 -0.86577904859 -0.11405990044 -0.92407894895 -1.0276167916 -0.65498300031 -0.7013971121 
-1.0941609241 -4.7027808923e-12 -0.072236211482 -0.39960843784 -0.22892649901 -0.052639403004 -2.1970992734 -0.69903024784 0.10337753025 
-1.6597888013 -0.42741814151 -0.33766405636 -1.0199870708 -0.6011928566 -1.6254279646 -1.7419488645 0.34090110678 -0.12097627661 
-2.0127213216 -0.20295833088 1.2217189988 -1.1983638916 -0.40737000717 0.39988471185 -1.9126480704 -0.39972322761 0.20742135767 
-1.0371635013 -0.55600711827 1.0272072208 -1.7179211328 -0.38033799758 0.28635619825 -0.78883526949 -1.7484076207 -0.536733236 
-0.99703692109 -0.79568949071 0.14928367218 -1.7530117616 -0.99165530621 -0.95064258407 -1.1151428983 -2.2412746289 0.31642816459 
-0.47109659625 0.30560605848 0.76438640534 -1.5371364091 -0.13367980227 -0.56329213531 -0.28861483115 -0.37144477866 0.94501481613 
-1.4216151528 -0.66888517192 0.080008940862 0.33367190325 -4.2867998868 0.008498207547 -0.61710929773 -2.0022949058 -0.83991129177 
-0.9245180132 -1.9764868939 0.25336180806 0.4248779283 -5.0507902173 0.059629160277 0.26077914039 -5.0384757227 0.028439759378 
0.28669040962 -3.7387954027 -0.014933839856 -0.3872454217 -4.3457669256 0.82199434297 -1.2910177346 -2.825933639 0.063936313626 
-0.34384317356 -4.45352738 -0.29955848643 0.72392499288 -2.1772676149 0.15150418101 -1.4713729339 -1.8463084044 0.76628526453 
0.12098859383 -4.2018791871 0.077258448508 0.099685717924 -4.6610389933 0.029094616252 0.17557528659 -3.0881548618 -1.2690848813 
0.15515125066 -5.3509234037 -0.030329437339 -0.13550734731 -4.705018242 0.087346917318 0.2227271659 -2.5304728758 0.00097003342418 
0.18843858576 -4.5521296616 0.015249290443 0.10504032224 -3.2610859124 0.11370119308 0.59120093388 -1.3909344229 0.013704681474 
0.014367182416 -4.0681435691 0.12289220445 0.12601860409 -4.4907865987 -0.016032329205 0.18768204497 -3.7803013902 0.14753808047 
0.23403073522 -3.6512560426 0.0478283708 0.1987862846 -4.6242206326 0.023015890129 0.40451981863 -1.3070199683 -0.12275891567 
0.29417379727 -1.9862952627 -0.039818711376 0.32804116364 -1.1552412393 0.0070082327796 0.61622951211 -1.9119105296 -0.20738559831 
-0.046433387681 -2.5557935143 0.10078376596 0.31420920852 -2.7750598049 -0.097963482767 0.43366009844 -1.5191688186 -0.049517231181 
0.36913289389 -1.5463756201 -0.007802324133 0.72663338406 -1.7862383037 -0.21288240543 0.36402353804 -3.7601316482 0.19883102248 
0.25712806713 -2.0953132269 -0.35378178994 0.38783607285 -2.5381113717 -0.20257872654 0.53139339326 -1.8770835655 -0.19943448125 
0.29087067049 -0.84716507909 0.0062244644234 0.18511043178 -0.9309192509 -0.0069282401081 0.25429259795 -0.87154725554 0.0012887888219 
0.15844111555 -1.38648017 0.077439061007 0.35090701992 -0.94602725123 0.22946694128 0.2978769299 -1.3827156207 0.030895813297 
0.52596938379 -1.2722989569 -0.0016839344467 0.42236987616 -1.1494562672 0.00090742863857 0.64740030612 -1.8963454882 0.037975286072 
0.048521245478 -1.4142714629 0.085256103112 0.40481010875 -1.1047245172 0.022312477756 0.65669450815 -1.4763686573 0.19049058113 
0.52761800375 -1.1941147195 -0.082023182161 0.47600227302 -1.0017590847 -0.070053801922 0.78479208951 -1.3487664911 0.17558464543 
0.080469750197 -1.2856009142 0.27978511642 0.4562978456 -1.1359706395 0.0055636827117 0.28022903367 -1.0525856865 0.057304244834 
0.41301205343 -1.1508109038 0.16499855562 -0.094314076412 -1.5505493109 -0.12972505144 0.2369671576 -1.1997202685 0.2006133812 
0.42647208813 -1.2443990774 0.023547189063 0.34148234324 -1.0203994454 -0.018392946936 0.34944441718 -1.1658889983 -0.091867324568 
-1.185187466 5.2945277278e-12 -0.25350745512 -1.4302209045 9.5727167512e-12 -0.40313117642 -1.1775271415 -1.6367894528e-12 0.62116055062 
-1.3107858092 1.5521287468e-12 0.32223724865 -1.3485954608 -8.1148554027e-13 0.47353059442 -1.2443233943 3.1669334439e-05 0.025466464331 
-2.2257084138 -0.48180035692 -0.67910334121 -1.3589235967 0.0057092123615 -0.41587932265 -0.95495153725 0.053797676725 -1.2507368409 
-2.1397772234 -1.7727741739 -0.88632141244 -1.5243124903 -0.68037677512 0.24644191016 -1.2805720801 -6.1133872811e-05 0.061313512413 
-1.8687964257 -0.3239971767 0.28868607617 -1.4040795481 -0.41324701476 0.5804570886 -1.903896203 -0.51102430237 0.6371668757 
-1.0780752205 0.31581654217 -1.2644290767 -1.7088006882 -0.86600367058 -1.0834663392 -1.8831624093 -0.37764232031 -1.0235492231 
-0.60686674146 -0.038515144958 -1.6560731271 -0.96976979412 -0.40407701335 -0.36852885311 -1.7607290357 -0.29247264673 0.0098414289399 
-2.0362295285 -1.1335330126 0.78814323771 -0.96796068507 -0.08987867338 0.37669534792 -1.6327395909 -0.017875743979 0.2787709586 
-0.51990317043 -0.12998001288 0.19210585043 -1.726890338 -0.44653169337 0.73807705906 -1.1553864252 -1.6281327902 -0.96164001556 
-0.85182302276 -0.83783965118 -0.44043561563 -0.11582182288 -0.055686500707 -0.79953837475 -0.32478420963 0.20100131648 0.47273437396 
-1.2630576032 -2.1170861568 0.00034842914381 -1.0057366514 0.17090759514 -0.63033953523 -0.037061204456 -0.46779843337 0.17022660178 
-1.5616050179 -1.2222914755 0.5460777055 -0.20690451549 -4.4293236421 -0.013570844186 0.16876018074 -5.2083682439 0.058898587759 
0.31547315168 -4.2538122528 -0.044415683526 -1.2030450743 -2.2608630854 -0.27365656955 -0.42238624551 -1.2196516589 -0.14654456923 
0.14951864681 -4.9414755914 0.05377577253 -0.60032726735 -2.4367756829 0.14832619546 -0.16142596883 -4.4345584649 0.70440939326 
0.059418024368 -4.0344987176 -0.031272505598 0.1575814748 -4.4538532473 0.14250204825 0.03980496215 -4.521982116 -0.081567693256 
0.10854934787 -3.3319746868 -0.19468929649 0.13845841086 -5.1540204172 -0.073416719506 0.23932458552 -4.6430492276 0.20630492803 
0.35740000355 -3.9844086355 0.14911945441 0.22046801916 -4.9071638237 -0.32338904891 0.098406758678 -4.1863962322 0.084707912793 
0.34084560895 -3.433859051 0.04701036904 0.65192437002 -1.9314629422 8.947170362e-14 0.054277909989 -2.4692505824 7.6905277277e-06 
0.016660622419 -3.7575731616 0.088033881292 0.2275336727 -3.2933865159 0.030626670959 0.088374377005 -4.0002881144 0.062836461705 
0.21667492932 -2.8972688945 0.056269900814 0.08693981963 -3.9328826159 0.23846928395 0.33543786784 -1.9068953621 -0.16263776989 
0.51494165052 -3.1281411756 0.045698768747 0.078654899949 -1.9675692334 -0.000870510079 0.24582699723 -1.6349672994 0.18177146242 
0.38366491604 -1.5582401208 0.16097276594 0.060568207075 -2.5546196641 0.023630121262 0.63617490357 -2.1654704598 0.05156922196 
0.45025301274 -2.2296151299 -0.0098770746358 0.3181007157 -2.8203362332 0.17518439364 0.41840855842 -1.6932149116 -0.046413524262 
0.35181011572 -2.0966647518 -0.044895998023 0.27725415944 -2.3338833103 -0.20391324785 0.2621799826 -1.3133302097 0.030768205372 
0.099718686647 -0.85079859095 0.19036155036 0.023187766206 -1.731532833 0.011587731747 0.49319050931 -1.864016399 0.061566592094 
0.21156391955 -1.2512960659 -0.071773183997 -0.0055384281808 -1.3249844455 0.17111072541 0.11090883362 -2.2008249233 -0.046390512767 
-0.054721042586 -1.6185071822 -0.0011797387417 0.61634665881 -1.8615179641 0.023005908278 0.38392279349 -1.2833818234 -0.21521129102 
0.21124308699 -1.5421093482 0.14098780909 0.34366225788 -1.16504892 -0.012244780335 0.34767264354 -1.1576910963 6.4139327233e-07 
0.35275516014 -2.2442792345 0.033968794756 -0.33823933335 -1.3054538929 0.15850386353 0.37864337493 -1.1525218904 -0.10225467179 
0.17932333264 -0.92200236426 -0.0057777490608 0.31583902986 -1.3086085074 -0.068415067874 0.23989194502 -1.1752935278 0.046591023497 
-1.3267927831 7.8080456621e-12 -0.14771182217 -1.3753093325 -3.8090008453e-12 0.12529385382 -0.63259814376 2.3270214331e-12 0.0042433792764 
-1.241542222 -2.2855705432e-07 0.31228622518 -0.82425813722 -0.28269030566 -0.00064984198801 -0.82029888845 -0.14154311361 -0.028952245032 
-1.711274288 5.2049483369e-12 0.14665744393 -0.8288348475 0.16712461383 -0.61452725742 -1.1411062484 -0.21907209511 -0.5942186835 
-0.93385939173 3.7125760949e-12 -1.4526341193 -1.1655057494 3.9642910115e-12 0.21959226975 -0.8120471656 4.0482721493e-12 -0.018554218215 
-1.278923016 -4.3965943035e-12 -0.010869677561 -1.6037116688 -0.00067863736172 0.43190419667 -0.60187074869 -0.54257066237 -0.10392760544 
-1.7280603728 -0.49471354983 1.215308845 -0.11504993651 0.49957358119 -0.2763248662 -1.3950096341 -2.1373425805e-05 -0.6110662747 
-2.1520432286 -0.062712025267 -0.26700894067 -1.5369732989 0.0079381848765 -0.19748912531 -1.5668330031 0.00021133127734 0.2672342026 
-1.4287184769 -0.26454957585 0.36264866996 -1.6325286724 0.00023543618634 0.50178929246 -0.63092530978 -0.28457481168 -3.7117197455e-07 
-1.119051203 0.3310443713 -0.56885585727 -1.7626096206 0.1039973662 -0.097012439669 -0.80509297047 -0.070824287837 -1.7913664397 
-1.438601306 -0.18331069869 -1.1352918542 -1.6876254922 0.092614013491 0.071257804821 -1.7250788681 -0.33398670485 0.41986478813 
-0.17861501416 0.23882367667 0.72647356466 -0.090431224924 0.020019980795 0.57629919988 -1.7113928701 -0.1253996909 -0.092020913687 
-0.84265322134 -0.60694439196 -0.80238449138 -0.39417807652 -0.51347041029 -0.87765479623 -0.14275165566 -2.3833674882 -0.4285058153 
-1.2453895298 -2.5066740275 0.64755463574 0.05934560604 -3.7485880256 1.5035064131 -1.3148494684 -2.2606275048 0.57456676369 
-0.77767959954 -2.4193145628 0.78107305132 -0.13802306778 -2.0656695784 0.59564203435 0.082115349309 -4.4360551661 0.032879564602 
0.11127018638 -4.9695539824 0.010028071218 0.10697726172 -3.6015385987 -1.1115540283 -0.11676447405 -2.3859920001 1.4367157831 
0.33491930676 -4.8841685871 0.23763771146 0.17921306298 -4.594735728 0.011012831955 0.27367284994 -5.1216945187 0.093745571185 
0.25737694874 -3.734709908 0.18055390486 0.04143966672 -5.2167492279 0.21613154327 -0.050941075657 -3.0719724008 -0.086910391291 
0.067808584697 -4.7276144547 0.064633440912 0.00291987047 -3.9396080349 -0.037453801594 -0.034672149915 -3.7477080826 0.15953556016 
0.081743832013 -4.2287953611 0.13623586259 0.082877941513 -4.1885665881 0.24674817281 0.22941494824 -3.8133198741 0.43676564978 
-0.033468142826 -2.8730104827 0.062527689519 0.32452212173 -1.1968513948 0.012181857968 0.11152440081 -4.1310731907 -0.028051712059 
0.31036126955 -2.9804307371 0.092304616821 0.50423514255 -3.3780620649 0.030398619227 -0.2368797812 -2.1153061017 -0.031183501979 
0.33222440442 -3.4233880927 0.084856182711 0.46154318485 -2.3627373574 -0.029408037728 0.4224540977 -1.8824574548 -0.026026678448 