# vtk DataFile Version 4.1
vtk output
ASCII
DATASET UNSTRUCTURED_GRID
POINTS 1274 float
0.273686 -1.29448 -0.0533849 0.273548 -1.30217 0.0959284 0.279254 -1.29498 0.317658 
0.157802 -1.31605 -0.211011 0.298371 -1.29137 0.178201 0.411449 -1.23446 -0.0668808 
0.381203 -1.29113 0.322116 0.469803 -1.23549 0.492881 0.512115 -1.2436 -0.00824114 
0.637068 -1.25345 -0.00576153 0.538755 -1.34668 0.187559 0.641036 -1.22289 0.434175 
0.852379 -1.27268 -0.151179 0.843364 -1.25444 -0.0829437 0.657621 -1.29639 0.158114 
0.755462 -1.27581 0.265829 0.696178 -1.27022 0.218694 0.793559 -1.20805 -0.0449414 
0.637037 -1.20775 -0.0562311 0.672349 -1.34643 0.00781559 0.715544 -1.19082 -0.0821944 
0.690763 -1.30821 0.278122 0.391055 -1.23459 0.281944 0.615113 -1.27214 0.224821 
0.912712 -1.23673 -0.076262 0.300954 -1.2505 0.128467 0.657484 -1.208 0.363633 
0.813825 -1.19507 -0.113207 0.921144 -1.31397 -0.000232562 0.822519 -1.22941 0.0380062 
0.971531 -1.20863 -0.0148317 0.65693 -1.22803 0.0464698 0.557371 -1.21916 0.3785 
1.08243 -1.22304 -0.28792 1.03378 -1.2415 -0.141567 0.504068 -1.22152 0.280689 
0.789739 -1.27899 -0.0127246 0.63486 -1.27405 0.285641 0.405161 -1.25083 0.137757 
0.952259 -1.20296 0.0597099 0.851287 -1.22716 -0.208393 0.798079 -1.23312 0.160148 
0.838007 -1.21215 0.108728 0.748442 -1.22106 0.215863 0.903195 -1.24346 -0.00496444 
0.985444 -1.23845 -0.236386 0.891715 -1.25252 0.291652 0.886257 -1.21798 0.230399 
0.45179 -1.29942 -0.306782 0.167764 -1.33265 0.280762 0.14534 -1.35898 -0.0654436 
0.0370367 -1.33512 0.173786 0.286191 -1.34237 0.471538 0.255755 -1.33812 0.38503 
0.239764 -1.31345 0.165106 0.379523 -1.35342 0.285052 0.153457 -1.34835 -0.272786 
0.359506 -1.41001 0.0556945 0.611673 -1.28939 -0.213153 0.217734 -1.35347 -0.221956 
0.399419 -1.34727 -0.151179 0.371458 -1.35531 0.404737 0.39889 -1.29308 0.394599 
0.278017 -1.34832 0.208979 0.213278 -1.33863 0.00562342 0.485005 -1.26635 -0.187319 
0.413022 -1.36079 -0.0236986 0.583342 -1.34514 0.299891 0.433069 -1.28261 -0.142617 
0.304006 -1.2841 0.243178 0.552623 -1.36019 -0.0192233 0.376534 -1.27374 0.194387 
0.331396 -1.29845 0.0617158 0.330345 -1.26185 0.445476 0.508673 -1.22758 -0.083544 
0.62344 -1.4128 0.0996838 0.543664 -1.25132 -0.240586 0.212494 -1.28194 -0.175268 
0.568468 -1.35593 0.0417317 0.541772 -1.3012 -0.0339428 0.327754 -1.26214 0.297908 
0.451089 -1.28854 0.450268 0.579707 -1.33512 0.469963 0.446524 -1.28103 0.264265 
0.511121 -1.29974 0.290876 0.45182 -1.36117 0.112082 0.615992 -1.30386 -0.0479113 
0.644013 -1.2275 -0.213976 0.972761 -1.28529 -0.284426 0.570479 -1.28653 0.172167 
0.474673 -1.28626 -0.250703 0.764516 -1.28926 0.3439 0.645414 -1.32735 0.220649 
0.57713 -1.23907 -0.0540274 0.999416 -1.26669 -0.0442403 0.741664 -1.25499 -0.0612726 
0.684785 -1.29039 0.0493846 0.876675 -1.34923 0.162194 0.603214 -1.25475 0.0795752 
0.7802 -1.23222 0.388001 0.790497 -1.24153 0.464779 0.545574 -1.26314 0.23267 
0.825942 -1.35956 0.207615 0.621946 -1.22541 -0.144878 0.687875 -1.23273 -0.0333373 
0.553113 -1.24105 0.123605 0.73238 -1.23673 0.0210613 0.808425 -1.30049 0.177884 
0.828875 -1.25067 0.340867 0.681267 -1.26715 0.329703 0.809143 -1.22666 0.532537 
0.912699 -1.24752 -0.369527 0.76948 -1.3102 0.0490474 0.43754 -1.25609 0.192611 
0.723877 -1.22675 0.535002 1.16363 -1.2213 0.0116123 0.628868 -1.26643 0.530039 
0.734232 -1.22569 0.317606 0.704849 -1.24502 0.41568 0.578897 -1.24368 0.0151735 
0.958806 -1.29312 0.219204 1.10583 -1.23868 -0.167294 0.838819 -1.30532 0.0441492 
0.976755 -1.22617 -0.0922434 0.908111 -1.28984 0.0618316 0.61618 -1.23689 0.147309 
1.32157 -1.19726 0.526016 0.738732 -1.25651 0.160899 0.939846 -1.22552 0.194209 
0.951955 -1.20852 0.423062 1.21211 -1.26376 -0.183007 0.905002 -1.23198 0.0976404 
1.04486 -1.22609 -0.00810177 0.8639 -1.2335 0.171956 1.10025 -1.25844 -0.0325565 
0.963282 -1.2632 0.0318466 0.0866449 -1.41341 -0.246701 0.28588 -1.36065 -0.213162 
0.430081 -1.40919 -0.397639 0.0351688 -1.35952 0.315669 0.213203 -1.32122 0.482541 
0.0965936 -1.40799 0.156569 0.21667 -1.34411 -0.402017 0.500246 -1.31853 -0.348269 
0.0870773 -1.35982 -0.381544 0.493603 -1.3476 0.459617 0.250979 -1.27904 0.529061 
0.14726 -1.35436 0.379529 0.240987 -1.41179 0.297806 0.09659 -1.35825 -0.0126977 
0.276931 -1.32022 -0.156433 0.0800726 -1.35879 -0.289032 0.471932 -1.35384 0.309833 
0.348557 -1.40768 -0.0292054 0.129566 -1.34341 0.230483 0.213136 -1.3347 0.0980516 
0.219478 -1.29567 0.291507 0.320353 -1.29145 -0.294897 0.270908 -1.34801 0.0405029 
0.422357 -1.31825 0.166041 0.0823984 -1.2927 0.215237 0.515849 -1.30071 0.418947 
0.893076 -1.30023 0.533049 0.547094 -1.35583 0.420306 0.240675 -1.29493 0.22874 
0.318072 -1.35522 0.157064 0.318802 -1.35427 0.0927055 0.366911 -1.28852 -0.232293 
0.520295 -1.33308 -0.241313 0.49251 -1.2928 0.20414 0.548577 -1.22592 0.527673 
0.644475 -1.28722 0.408192 0.77669 -1.3407 0.462354 0.423565 -1.34422 0.228858 
0.676758 -1.41468 0.136514 0.589202 -1.22286 -0.399396 0.601021 -1.35843 0.188458 
0.854251 -1.22718 -0.316103 0.390753 -1.29516 -0.298389 0.828397 -1.29984 0.283797 
0.758996 -1.28956 0.419776 0.332604 -1.28437 -0.171964 0.571262 -1.2763 0.288621 
0.670114 -1.27287 -0.166615 0.490142 -1.24972 0.145409 0.879567 -1.29186 0.21432 
0.970264 -1.38753 0.0887875 0.535618 -1.28036 0.0564861 0.995262 -1.25539 0.443778 
0.648722 -1.33019 0.341114 0.9418 -1.29611 -0.063047 0.671436 -1.21088 -0.283789 
0.72556 -1.22911 -0.145212 0.791235 -1.30421 -0.0807354 0.820987 -1.34987 -0.0456056 
0.739901 -1.3184 0.177915 0.702539 -1.35512 0.138559 0.859628 -1.29909 -0.0263038 
1.00896 -1.24927 0.086497 1.06216 -1.27498 0.0385394 0.91223 -1.25108 -0.139959 
0.786898 -1.2889 0.114833 1.10894 -1.28541 0.393519 1.0043 -1.24681 0.18908 
0.818647 -1.24343 0.228993 0.698374 -1.25829 0.110995 0.931314 -1.36166 0.216102 
0.857237 -1.28508 0.118854 1.19575 -1.36105 0.117258 0.947695 -1.35362 0.143834 
1.12381 -1.25915 -0.0981961 1.02644 -1.26097 0.275379 0.763028 -1.22454 0.0950286 
0.992912 -1.35463 0.196247 0.297591 -1.4153 -0.358884 0.199601 -1.37212 -0.327229 
0.0322034 -1.4135 -0.0346245 0.441296 -1.28069 0.531353 0.0339859 -1.41171 0.191305 
0.0880553 -1.32449 -0.107042 0.340212 -1.30688 -0.394474 0.0369042 -1.36209 0.0211677 
0.032648 -1.34521 0.488141 0.346377 -1.40639 0.19851 0.15163 -1.41314 0.444397 
0.323884 -1.34693 0.532516 0.0880459 -1.39512 0.227397 0.326557 -1.35888 -0.265535 
0.218149 -1.35082 -0.128942 0.247715 -1.41429 -0.200904 0.12475 -1.33756 0.153026 
0.311869 -1.29157 0.501968 0.0914619 -1.33715 -0.219875 1.00544 -1.41418 0.47297 
0.234034 -1.40735 0.202612 0.218317 -1.34176 -0.0601449 0.403414 -1.35842 -0.282334 
0.150908 -1.3236 -0.00109714 0.58236 -1.41374 0.215483 0.468948 -1.4131 0.14463 
0.452161 -1.28908 0.341107 0.273779 -1.35698 0.322785 0.194196 -1.36245 0.157567 
0.311451 -1.34573 0.270483 0.802659 -1.4127 -0.226369 0.190183 -1.38818 0.264686 
0.356695 -1.34241 -0.0620982 0.1617 -1.30575 -0.120739 0.394463 -1.41526 -0.141286 
0.293286 -1.35433 -0.0873371 0.465314 -1.33989 0.395985 0.479102 -1.25499 0.394929 
0.297803 -1.35993 -0.0221061 0.358338 -1.34945 0.0163257 0.800934 -1.29769 -0.212231 
0.378893 -1.36167 0.155188 0.336219 -1.34527 -0.179606 0.352483 -1.29995 0.131929 
0.377613 -1.29361 0.256159 0.347324 -1.3327 0.211718 0.525943 -1.23591 0.436744 
0.447926 -1.29516 0.108845 0.734829 -1.25953 -0.21028 1.05805 -1.36703 -0.147631 
0.310118 -1.30423 0.00398498 0.443633 -1.30486 -0.0198276 0.836468 -1.41477 -0.140637 
0.613569 -1.36235 -0.0114332 0.649967 -1.3631 0.275174 0.501402 -1.35079 0.244419 
0.518247 -1.26087 0.345308 1.14792 -1.36792 0.380205 0.628717 -1.36897 -0.0746765 
1.12058 -1.28386 -0.219321 0.725269 -1.29695 -0.116808 0.85349 -1.32467 -0.107593 
0.686923 -1.36361 -0.0514578 0.746168 -1.34166 -0.0064925 0.897842 -1.35459 -0.0555471 
1.05012 -1.2361 0.467591 0.635983 -1.31482 0.0923166 0.840885 -1.41501 0.2539 
0.652736 -1.25819 -0.0946316 0.895535 -1.35379 0.0898735 1.09812 -1.31903 -0.00119823 
1.01078 -1.31123 0.00852956 0.813392 -1.37078 0.0466337 0.753323 -1.33962 0.102093 
0.695518 -1.29839 -0.0353798 1.0504 -1.34977 0.154884 0.854838 -1.41217 0.0915037 
1.18061 -1.23168 0.410059 0.994656 -1.29006 -0.10594 1.09747 -1.40835 0.172871 
0.963245 -1.37556 -0.0366409 0.971469 -1.31622 0.0849905 0.859141 -1.20961 0.455193 
0.0341698 -1.37729 -0.227779 0.0314946 -1.41421 -0.173541 0.0354919 -1.41021 0.467878 
0.0723905 -1.41424 0.307934 0.083819 -1.37131 0.528368 0.0998582 -1.41553 0.479741 
0.0770391 -1.41064 -0.339178 0.1669 -1.39472 -0.39495 0.384455 -1.36052 -0.403686 
0.0336249 -1.41208 -0.285967 0.0512765 -1.41294 0.0665592 0.264679 -1.4091 0.470982 
0.0355756 -1.41055 0.364042 0.240276 -1.4087 0.370482 0.142553 -1.41182 0.527346 
0.301189 -1.35419 -0.332139 0.142965 -1.41429 -0.331463 0.145808 -1.41471 -0.269123 
0.640437 -1.41014 -0.320154 0.424283 -1.41293 -0.237031 0.115796 -1.41367 0.0603926 
0.0974932 -1.3439 0.42206 0.39202 -1.33181 0.529311 0.109646 -1.35187 0.315675 
0.500933 -1.4062 0.400632 0.174992 -1.3714 0.0532931 0.310284 -1.40789 -0.168357 
0.292548 -1.41419 0.089746 0.209779 -1.40964 -0.0930339 0.355074 -1.34892 0.469634 
0.316669 -1.32224 0.415511 0.291383 -1.40986 0.249618 0.713845 -1.35032 0.5187 
0.207064 -1.35178 0.332085 0.410809 -1.35012 0.349671 0.453603 -1.34852 -0.224142 
0.383507 -1.3558 -0.218965 0.0654242 -1.35873 0.109005 0.455294 -1.40706 -0.17298 
0.243105 -1.35271 0.267329 0.263542 -1.35817 0.128598 0.420414 -1.35387 0.450668 
0.33676 -1.32099 -0.122268 0.457214 -1.41043 0.0499767 0.621452 -1.28633 -0.3823 
0.523199 -1.29213 -0.290429 0.569883 -1.41475 0.0649707 0.518604 -1.28591 0.489712 
0.648235 -1.41098 0.225429 0.550277 -1.35131 -0.29675 0.456597 -1.41397 0.209092 
0.680562 -1.36148 0.394785 1.07268 -1.29147 -0.269863 0.462831 -1.28385 -0.0797429 
0.42778 -1.34135 -0.0858342 0.501863 -1.32631 0.0148882 0.438284 -1.34185 0.0377491 
0.529187 -1.33138 0.355533 0.571432 -1.28981 0.535691 0.942793 -1.25494 0.531368 
[...]
POINT_DATA 1274
FIELD FieldData 10
VELOCITY 3 1274 double
-1.2115113703e-05 -1.2389946135e-05 -0.0001410512262 -0.00020931414725 2.6753422488e-05 7.4891862471e-05 -0.00017940227597 -2.7985908583e-05 0.00015637277916 
-4.2965422551e-05 2.2512166271e-05 9.6076833425e-05 -0.00012476612545 -2.4858928653e-05 4.2230085829e-05 -7.6091037378e-05 7.609214449e-05 0.00017389432857 
-0.00025232537179 -5.3600872389e-05 -4.059750567e-07 -0.00029031269538 -3.4053364838e-07 -0.0001452860336 3.0834038968e-05 8.1043970028e-05 -0.00022107852516 
8.4114053783e-05 -0.00014647283299 -0.00013358758449 -0.0001569904968 1.3121104141e-05 1.4872458799e-05 -0.00024891641022 -0.00027882371774 -0.00011160685943 
-3.9807936542e-05 -0.0001017933722 4.5162759943e-05 -9.9939506405e-05 -5.0089158406e-06 -1.6207587507e-05 -5.9793939594e-05 -9.1550653731e-06 6.3982564788e-05 
-1.502895694e-06 4.2332577118e-05 -8.9983714707e-06 -6.2681139359e-05 3.2198670738e-05 3.3950237294e-05 -0.0002937275338 -0.00014119038374 -4.9094117812e-05 
-1.2254678318e-05 -0.00019848332853 -0.00017174489529 8.0616534143e-05 5.2151287787e-05 0.0001011372522 0.00036868380037 -8.2358723659e-05 4.0567486727e-05 
8.8790121928e-05 -0.0001105489198 -0.00015043977716 8.4680846686e-05 -4.1221131665e-05 8.6486264624e-05 -7.5167363312e-05 1.1247521578e-05 1.3063800334e-05 
-0.00011092039607 -8.699850897e-05 0.00021144832229 -0.0001152692327 -1.1508847093e-05 7.3026611202e-05 -3.6963782198e-05 -0.00010239719941 -5.3271107725e-06 
-0.00027494179226 -0.00010092673744 -3.5143787755e-05 -0.0001395024662 -4.6813958311e-05 5.4694349719e-05 -0.00042493012565 -7.2594211359e-05 4.4765574887e-06 
-0.00020311945408 -6.3595215015e-05 0.00018170083373 6.2440023114e-06 4.8838935423e-05 -0.0002244610779 -0.00023686429004 -0.00017213042265 -3.4873585191e-05 
2.3120121679e-05 -0.00018499469677 -2.6797148577e-05 0.00015881618694 5.8830640141e-05 -8.0420878555e-05 0.00013702492875 -0.00018649963275 -7.4655633842e-05 
-0.0001330750498 -0.0001514981148 -0.00020310367497 -4.8614189019e-05 -0.00021030972968 -4.4354565023e-06 -2.4724979105e-05 -0.00014367004363 3.0739013178e-05 
0.00044295691685 -0.00026948930181 0.00028411244614 -6.2490899837e-05 -0.00031157696634 0.00010022282861 -1.1986625029e-05 5.3569757799e-05 0.00011426117802 
-0.0001944660816 -8.3408554589e-06 -8.4215800615e-05 5.796720386e-05 -5.2974949388e-05 -0.00011726243464 -0.00021315978115 -8.5233918444e-06 0.00032472743693 
9.1334339567e-05 -0.00019510167486 6.2551291927e-05 -1.4254006346e-05 -0.00014393184545 3.7473548898e-05 -0.00043353464306 -3.0535430106e-05 0.00017869972942 
-0.00022099212272 -1.4458005498e-05 -4.350975648e-05 -7.239210264e-05 -6.0215822465e-05 -1.8586076811e-05 4.1585350266e-05 -7.5348859103e-05 5.4878672381e-07 
1.0542477038e-05 -0.00038710838687 0.00012082602432 -0.00016370302389 1.562344713e-05 -8.8460740343e-05 -0.00017500493135 9.1412291874e-05 5.1706920423e-05 
-8.5360383011e-05 -9.6439658029e-05 0.00021567083764 -9.3251744676e-05 -3.5060561614e-05 -7.3172396859e-05 8.8795798101e-05 -7.3232086191e-08 7.5457974453e-05 
2.4690691809e-07 3.7822922532e-07 2.8534343997e-05 -6.1767111823e-05 4.5123204136e-05 6.4364599312e-05 -6.4749182867e-05 3.2091370653e-06 0.00011805490134 
-0.00017435377714 1.125868776e-05 0.00020971907303 -0.00018149037833 -0.00010980600856 -2.1622652729e-05 -0.00030866378781 -3.9443735748e-05 -2.2802638861e-05 
-7.26827791e-06 -5.3735038438e-05 0.00014915320183 -0.00014730384704 -0.00022415429916 0.00022482171168 -7.1145219404e-05 -0.00016620480228 -1.1220434512e-05 
-0.00026009157664 6.2109078908e-05 2.3443118504e-05 -8.4507526374e-05 1.3328730795e-05 1.1879899128e-05 -0.00011995276218 4.1124370881e-05 -2.232756839e-05 
-0.00011979348849 -4.2126466507e-05 5.254239295e-05 -0.00018334106184 6.1532140662e-05 0.00018162297769 -7.4652486075e-05 -4.3658480789e-05 1.6049005403e-05 
1.8960453454e-05 -0.000105590351 -9.6896123772e-05 -0.00018123166649 5.1390591436e-05 -2.5329904982e-05 6.5580830041e-05 -0.00011756734704 -0.00018127636231 
-0.00013888535329 2.8140886151e-05 8.7967810101e-05 -0.000211250155 -0.00010962241303 8.1971052023e-05 4.5929385365e-05 -5.4743261778e-05 5.9558147845e-05 
5.6522682912e-06 5.4399385211e-05 0.00021080464958 0.00040226113887 0.00011529102078 0.00014046474187 -0.0002427963078 1.9757268918e-05 0.00010262720893 
-0.00026770165246 -0.00012435072594 -7.5367037275e-05 -0.00025722731041 -0.00023410990299 5.8478151255e-05 4.4915047919e-05 -0.00010293610587 3.8139201993e-05 
4.4487542581e-05 -0.00027179253973 -0.00014922537339 -0.000139005473 -8.5964620554e-05 -0.00011617368167 0.00023530803967 -0.00019388875725 -0.00014898770423 
0.00025432926078 -0.00012735267524 8.6177823635e-05 3.7047132801e-05 -0.00017601016947 8.2138979861e-05 0.00014580303226 -0.000154479724 -0.00013987793649 
-0.00023942961982 5.7568846378e-05 -4.9622381525e-06 -0.0001074169218 -7.0104772823e-05 6.528817365e-06 -0.00010082671594 6.8790100399e-06 -4.1881681641e-05 
7.9356361851e-05 -0.00030867703866 -0.0002429366704 -5.4262583463e-05 2.7622169192e-05 0.00015052731091 -3.8687816002e-05 -0.0003546567478 -0.00029182794154 
-1.9360082194e-05 3.4315053273e-05 -7.684202687e-05 0.00013306671211 -6.0267331244e-05 0.00010367133333 8.048984322e-05 -2.9252113921e-05 -0.00016255691753 
-3.3958542052e-05 -1.1681797468e-05 -5.6428936235e-05 -0.00022524394991 3.3916590588e-05 4.9833415139e-05 9.2838951304e-05 -8.2989409479e-05 -0.00021989922151 
-0.00019929108424 0.00010515849412 0.00011381086948 -9.0458776203e-07 -0.00022453003529 -4.4194654187e-05 3.4431912469e-05 -0.0001262815036 -0.0002266033754 
1.0776776538e-05 -0.00025928108046 -0.00020715253105 -3.2212530936e-05 2.041149058e-05 -0.00011819017258 4.774912985e-05 -1.1441424335e-05 -9.5429329687e-05 
6.0342083537e-05 -0.00019478722888 5.0156878285e-05 -1.4111749589e-05 -2.6932996933e-05 -0.00014999437559 -4.3792233779e-05 -2.5242119742e-06 8.2385733379e-06 
0.00010098054053 -8.7129107418e-05 0.00013512994944 -0.0001209527032 -0.00035300223457 8.2689008359e-05 -6.8392382267e-05 -5.002935534e-05 5.124558131e-05 
-5.7808476069e-05 -6.8667741579e-05 5.2687502154e-06 0.00010315664803 -0.00013114727806 -7.6351746234e-05 -0.00014317927438 -9.1186065447e-06 -0.00010428465172 
5.5137547409e-06 -1.612795555e-05 9.5037262712e-06 -0.0001087656128 5.5949810803e-05 4.828125418e-06 8.3755720877e-06 -0.00034017383504 -0.00022051415663 
7.5286780424e-05 -0.00034692900248 -0.00019948447243 0.00011633477796 3.2685369078e-05 -0.00012293823861 -0.00018713618248 -1.022538101e-05 -5.5996829909e-05 
-0.00016351579298 -0.0001001298667 7.7891655644e-05 -0.00013057841856 -6.9585682327e-06 7.7566298564e-05 -3.6561406402e-05 1.5371252128e-05 -0.00017197608909 
-3.3387513058e-06 -2.5272952803e-05 -8.1669358306e-05 7.6874454274e-05 -7.8534157543e-05 -0.00011343361642 -0.00034151044394 -0.00021888572722 0.00034429497864 
-0.00024634724925 -0.00018175386229 6.6732554401e-05 0.0002241190214 -0.00026333137168 -0.00013763224311 -7.8415399908e-05 7.2045712344e-05 -0.00010960164264 
-0.00019514713357 -0.00022194691741 -9.0834066631e-05 2.2264010372e-05 -3.5393808885e-05 -1.3954862634e-05 -0.00027515511744 -0.00016760200941 -0.00025654590902 
-9.2763891886e-05 -0.00024347247173 2.458603784e-05 -1.0912085464e-05 -3.7601044906e-07 1.835079967e-05 -1.2377154222e-05 3.4745555443e-05 -5.0173975002e-05 
-2.4457481982e-05 1.6688862789e-06 -3.2195493457e-05 -1.023157934e-05 1.9864226976e-05 0.0002209683033 -6.3376048689e-05 -5.6484069938e-05 -2.7070668037e-05 
-8.2010523524e-05 1.1705942603e-05 -0.00010342539152 3.8458991898e-05 1.8443898903e-05 -4.9557036479e-06 -0.00019344272785 -3.8105146285e-05 -8.2267723155e-06 
-1.565359771e-05 1.1354657391e-05 -2.9449069323e-05 -4.0390534787e-05 1.5108826333e-07 -8.4909432086e-06 -6.4652531785e-05 -3.6685656662e-05 -8.7897607277e-06 
0.00012145644523 -1.1015185318e-06 4.8305315449e-05 -2.3876625677e-05 1.5981794725e-05 5.2922588222e-05 -7.2223765561e-05 -4.4411866764e-05 -0.00010578768046 
-5.9913503031e-05 -0.00017798748331 0.00014818750897 -2.707403802e-05 1.9318462423e-05 -5.6157462507e-05 -0.00026104684498 1.0155321811e-05 -0.00011794951433 
-0.00010323282388 0.00018981155579 0.00017016401384 -9.0548002151e-05 2.9980162609e-05 -1.8896033568e-05 -9.1903849086e-05 -7.1606335313e-05 -5.3666932506e-05 
-0.00013281301047 1.6725420259e-06 3.2369500066e-05 -0.00020086986509 4.9326743691e-06 4.6260349265e-05 4.2672568194e-05 -4.5569316891e-05 3.6403437865e-05 
-5.5609197477e-05 1.2001051859e-05 -5.6430591189e-05 -0.00016751653997 -4.7489109066e-05 -2.6001647728e-05 0.00031374134014 -9.1183032863e-05 -1.4206648094e-05 
-0.00011924666714 3.4369319912e-06 0.00014633225092 7.3544630345e-05 -0.00010082838342 -8.0922487301e-05 -0.00013887727939 -2.0672914973e-05 3.0716470989e-05 
-7.8598029494e-05 5.6200377578e-05 2.1802679846e-05 -0.00012698052621 4.1810180459e-05 0.00014479802737 -0.00020663193398 -4.1491257014e-05 3.9668736765e-05 
-1.5678530516e-05 -0.00020140797691 4.823500767e-05 -6.8956102523e-05 -1.0130314479e-05 5.0534260139e-05 -4.3324197504e-05 -4.4984806771e-05 -4.2656943354e-07 
-0.00010403104297 6.686962659e-05 -5.8590033055e-05 -0.00021193263441 7.9531791058e-05 0.00022614732114 -0.00026717150241 6.9993216345e-05 -6.5574262001e-05 
-0.00012435036759 -1.2087244869e-05 3.1147695621e-05 6.5016421645e-05 -0.00028638198054 1.1422748209e-05 -0.0001250873706 2.2831476552e-05 5.6870216834e-05 
8.402657493e-05 -0.00019720498612 0.00020088505549 -0.00017961125491 -8.8674847356e-06 9.0253050736e-05 -7.86675118e-05 -6.7752453861e-05 5.4811135766e-05 
-6.5950549579e-05 6.3385614733e-05 -9.9794351638e-05 -0.00013106254551 2.5020378939e-06 8.4700733634e-05 -8.9947455475e-05 -2.0074743812e-05 -0.00010717158669 
-2.7692852356e-05 -0.00029588213546 0.00010092399161 7.0718685226e-05 -0.0001195690523 -2.6882256186e-05 5.4134643482e-05 -1.1209503209e-05 7.9049065239e-05 
-4.9519016656e-05 0.00015669031342 3.3417198986e-05 1.4710541621e-05 -5.3337767281e-05 2.1585078723e-05 0.00021353478192 -9.4485837833e-05 -5.5373280491e-05 
5.9444128115e-05 -5.6489848323e-05 1.4720456309e-05 -1.2467247613e-05 -7.0428905413e-05 7.9532797706e-05 -0.00017612153389 -0.00021356128376 -0.00015400036478 
-0.00011204745431 -5.7554946199e-05 -6.0399951612e-05 -7.7126177709e-05 -3.6063347281e-05 -3.5958869397e-05 9.7983101518e-05 -5.4327515177e-05 -0.00015712522262 
-1.0983611067e-05 -5.7205564668e-05 -9.7617462717e-05 -0.00026263635838 -0.00010173654912 0.00014406582002 -4.3969567434e-05 -3.3321569713e-05 0.00010967633924 
9.2841157321e-05 2.864431252e-06 -0.00014383314578 5.4781514979e-05 -0.00015792800675 -8.2537292468e-05 -6.986101362e-05 -6.6038788894e-05 0.00022942946377 
-5.6588845774e-05 -0.00014322880024 -0.00012745473174 -0.00026789180953 -0.00071129750127 -0.00062639410167 4.6270551406e-05 -8.2669468968e-05 0.00017010122346 
1.3727973928e-05 -4.3856373726e-05 2.1557247855e-05 -0.00010474482075 -4.6233573933e-05 2.0004629351e-05 -0.0002297025454 -0.00025173169555 -0.00032790767248 
-0.00013006168704 4.791603286e-05 -3.2404839525e-05 -3.1864187389e-05 -8.6778082142e-05 7.2770694213e-05 3.1547546997e-05 0.00010335983053 9.665987971e-05 
2.0947239487e-05 -0.00015916158928 -0.00016511577379 -2.3431166822e-05 -0.00016171114589 5.1193461543e-05 -5.8567613709e-05 -0.00016285548344 -8.3832686741e-05 
-0.00018480200671 -0.00063316019436 -0.000269354032 0.00015090996092 0.00015398422193 -0.00017562780661 -4.9300694122e-06 3.8129925179e-05 -1.0496488584e-06 
1.1260105734e-05 -2.0449272834e-05 -5.4441145464e-05 -8.7765622414e-05 -3.1708152675e-06 -1.7063279202e-05 1.765148286e-05 -0.00026161307169 0.00017425409429 
5.3726049329e-05 -0.00017593985134 -1.6484072046e-05 -1.9168005518e-05 -1.7058830382e-05 1.384362779e-05 1.7888949005e-05 1.0319104232e-05 5.6466020415e-05 
-1.4487353728e-05 4.8434059121e-05 -0.00017862423687 -9.4276326975e-05 -1.6738131043e-05 1.0052699714e-05 -0.00029938681474 0.00012471920312 -0.00019577114316 
-0.00010209114537 -2.1866347989e-05 2.9269899431e-05 -3.6585237896e-05 7.4369600929e-05 1.8185128325e-05 -5.2287088684e-05 -1.0173494752e-05 -1.9586053351e-05 
-4.0740634445e-05 -0.00012145523102 0.0001540999754 -0.00061799765897 7.3975389228e-12 0.00080473983804 -0.00016677392257 4.4024896955e-05 2.7035104739e-05 
-6.8051386353e-05 -4.9227358357e-05 -4.2544446391e-05 -5.5675711897e-05 0.0001607335646 -7.1119735181e-05 -0.00012726024407 2.6463505414e-05 3.0642872617e-05 
-0.00013039905929 1.1299843196e-05 -7.8713949656e-05 0.00012670077405 -0.00015968146247 0.00015936547396 -4.4235501769e-05 3.0505601951e-05 -1.7866403314e-05 
-7.4008075486e-05 -7.5589051291e-05 -3.7988866174e-05 -2.2536642712e-05 2.7804712825e-05 0.00015418869066 3.634459598e-05 3.0432824918e-06 0.00011168490598 
-0.00025356230791 -3.5120227854e-05 4.5058666799e-05 -0.00014368971019 -4.1733945318e-05 6.5342545355e-05 -0.00017977215845 1.9447499423e-05 -2.0673651619e-05 
-0.00013339543074 -3.0559063752e-05 7.3515240917e-05 7.212116874e-05 8.7995873949e-06 -0.00013832488757 -1.2592106953e-05 -0.00014396895114 1.8297780065e-05 
0.0002221038173 -9.680480172e-05 -6.3725849042e-05 2.1041467068e-05 8.6694816277e-06 8.02725297e-05 -4.3476958079e-05 4.079187585e-06 0.00015582925371 
6.7560640379e-05 -9.0098815772e-05 -7.6523639202e-06 -0.00018777329216 -7.2060869326e-05 -5.9915549552e-05 -6.1825547648e-05 -0.00012523221712 4.1324856565e-05 
-0.00013927426048 -3.3614732138e-05 4.4650642332e-05 -0.00020881838317 -1.999685119e-05 1.7594823442e-05 0.00011818990823 -0.00019707913045 -9.9781325872e-05 
-8.8350166756e-05 1.1685492395e-05 1.3767292228e-05 -2.635113962e-06 0.00016623420146 -0.00010835179466 -0.0001032126056 -1.865957382e-05 3.2535906947e-05 
-3.6159169657e-05 3.1875744634e-05 -4.0527316193e-06 -5.6733191806e-05 -2.6185176988e-05 5.9848298495e-05 -5.1194460657e-05 -0.0001401101769 7.8226827455e-05 
-8.7238079683e-05 -1.7285045409e-05 -4.1015313114e-05 -3.3980267632e-05 -0.00037588982517 9.2172584369e-05 -1.1671520616e-05 -2.9914043807e-05 5.3663073666e-05 
-0.00018205406215 1.6134159637e-05 -2.5672584123e-05 8.129932745e-05 -9.3208278624e-05 -1.7964644929e-05 -4.1617354162e-05 -1.5656666774e-05 5.9632487848e-05 
-3.6861334615e-05 -8.0305973404e-05 -0.00010398086489 -6.2539768233e-05 -7.8779288911e-05 0.00011526219522 -0.0001877103458 -8.0543530886e-05 -4.9627140237e-06 
-0.00011670995275 -0.00024085998431 -6.9139497797e-05 9.1180160448e-05 2.0841515989e-05 4.8676975801e-05 -6.4771346976e-05 -7.7787276216e-05 2.8878002355e-05 
9.9030705369e-05 -0.00012353350291 -0.00012417239765 0.00010488244905 -0.00023563278071 -0.00040816992992 -0.00018025811214 -6.1103316694e-05 0.00014424718999 
-7.929421329e-05 -4.3999349434e-05 -2.427744235e-05 -0.00013844088425 -7.2141535152e-05 8.4655195002e-06 -7.2512398238e-06 3.114767248e-06 1.1234957187e-05 
0.00011351304059 1.0823639249e-05 5.5200952768e-05 6.0616031815e-05 -5.3770638746e-05 -2.2610705126e-06 -0.00022025845555 -5.2514550648e-06 -0.00018461771904 
2.3084412834e-05 -0.00024346068643 -0.00011930966332 -0.00015487728698 -1.5173801887e-05 -1.3750740453e-05 -4.4848796014e-05 -0.00028562798959 -0.00026512341403 
-8.8192504918e-06 -0.00010908053064 -6.8671400908e-05 0.00020691219667 -0.00014049083046 4.2134557274e-05 -0.00020579992513 -4.9515998285e-05 0.00025762889812 
-0.00018109199741 -0.00015803488199 -0.00022073526448 5.078971904e-05 7.7249112697e-05 -7.3773453845e-05 -2.6935037346e-05 1.4784508528e-05 0.00018487813071 
0.00016582193602 -0.00022907686049 -3.8038612369e-05 0.00014624643935 1.625208694e-05 0.00014581353759 -0.00034938244744 -5.1654830158e-05 -0.00028390013856 
-0.00015574086691 -5.8035179667e-05 9.3148133364e-05 -5.1265960017e-05 9.0061796693e-05 -1.5783071645e-05 -0.00021009969028 -0.00015852725009 -0.00031301176568 
1.1124125204e-05 -3.8629435654e-05 -0.00021420688399 -0.00013704081873 0.00017566233444 -8.2547823333e-05 1.0142365085e-05 -1.0009154994e-05 -0.00013747076844 
-5.3744686453e-05 3.5150294368e-12 0.00021754223253 -0.0002035748383 0.00011390081227 -4.3581598117e-05 0.00013801260702 7.6640445854e-06 0.00039304557327 
9.3292636136e-05 1.6569105282e-05 -0.00010291565677 -1.3664220733e-07 4.8666268493e-05 -8.9719635003e-07 1.047970084e-05 1.613347808e-05 -1.8874407636e-06 
3.7733975818e-05 4.4572371896e-06 -7.0373734188e-05 -2.3818991566e-05 -1.7551365627e-05 -1.2763996053e-05 -0.00022167081321 1.0201265387e-05 5.3500673343e-05 
4.0296866516e-05 1.6946694317e-06 0.0001786631058 0.00013081557684 8.8176688846e-06 6.5744699709e-05 -0.00021174730351 -3.2195422233e-06 0.00028286368881 
-0.0001219642067 -5.4663223915e-05 0.00010920734246 1.9619185507e-05 -7.442430344e-05 -2.9419352526e-05 -8.7973906811e-05 6.4761076606e-05 4.3219493143e-05 
2.8239017578e-05 -1.2502535558e-05 0.00011293886051 -4.0637522105e-05 9.1925027972e-06 3.0841051346e-05 -4.9838651053e-05 2.4014470259e-12 -0.00010956749742 
9.6450612331e-06 3.9734879009e-05 -6.2366026187e-05 -9.2491256913e-05 -6.6573173217e-06 -1.5864291836e-05 -1.5094253308e-05 1.1699210033e-05 0.00012992329868 
5.0248045645e-05 -7.0219173978e-06 -0.00024272694357 -6.1452375564e-05 -4.8205391927e-05 -0.0001276439688 -3.5526025545e-05 6.274950437e-05 -4.6934828557e-05 
4.7458815654e-05 -1.6298222885e-05 7.3941622146e-06 -9.7016439643e-05 -0.0002102714972 1.315814818e-05 -0.00015349946475 -7.4452812319e-05 8.8584545842e-05 
-5.1705039904e-05 -2.5253507335e-05 2.0677826248e-05 -6.8095173e-05 -1.8973749679e-05 3.0931369434e-05 6.6916632927e-05 6.7597463322e-05 5.0499042551e-05 
-9.7654058576e-05 -1.1805400166e-06 4.8419089785e-05 -0.00026884662974 -3.9974481554e-05 -2.3704649165e-06 -4.7906272191e-05 -4.6566529544e-05 1.6294805422e-05 
8.5724862856e-05 2.7040933744e-05 0.00010263278408 -8.7039390961e-05 3.1244682573e-05 -6.0229398234e-05 -0.00013123766737 4.6188166952e-05 8.9526307931e-05 
-0.00018962975171 -4.2760081258e-06 -1.5927158668e-05 -6.0023711463e-05 -4.2862503477e-06 3.5185077896e-05 -0.00016930224427 -7.8501695318e-05 0.00011087931495 
6.6164180182e-05 -5.9811396657e-05 4.6751047617e-05 -0.00018333595041 -0.00018332118803 0.00019468661419 8.7896028089e-06 -0.00033327352973 -0.00011890132381 
-0.0002515056422 -6.7620028747e-06 -1.7092943002e-05 0.00010459091647 -2.8916880661e-05 -6.5773614857e-05 -0.00030802733476 -3.553543944e-05 0.00012889974084 
-0.00029388714087 4.9280529143e-05 0.00010559127668 -2.6363476748e-05 2.417363989e-05 -5.8986800687e-05 9.7474767671e-06 -0.00010393391821 -0.00017563274501 
-0.00013096869656 -1.1262051048e-05 8.1059402483e-05 -5.8324402922e-05 -0.00015965864451 3.7479142624e-05 -0.00015230002134 9.5166819162e-05 -2.0475179829e-05 
-0.00024014909817 3.0704295475e-05 0.00020403815226 -3.8342396607e-05 0.00011450000723 -3.8155654821e-05 -4.4173285829e-05 3.5644953372e-06 -1.3738635206e-05 
-0.00016768049686 -0.00024032475006 -3.2540680372e-05 -0.00013296395179 -7.9423746035e-05 -3.6779855663e-06 -7.5149492629e-06 -0.00019939814031 -1.5019433521e-05 
-7.2453457999e-05 -3.8998599238e-06 2.9159519781e-05 -0.00012198084135 -5.5056252682e-05 -1.8022959831e-05 0.00027247052241 -0.00012660458264 -6.1601379102e-05 
0.00013520492777 -0.00020174911944 -0.00037468300684 -0.00022942794206 -0.00026983213022 -0.00029730535491 -0.00014167202277 4.0030748445e-05 -2.7763336026e-05 
4.4209701985e-05 -4.9948240097e-05 -0.00042298930501 -0.00011126941303 1.8831009888e-12 4.9845776735e-05 2.1098832674e-05 -6.4055252435e-05 -0.00023199779354 
-4.5432834486e-05 0.00016563011427 0.00012890160646 -0.00028549780278 -0.00014775851959 0.00010845198291 -4.657751383e-05 -3.0485899616e-06 -0.00010878685183 
-0.00011764783044 -6.4058128011e-05 0.00018583069379 -0.00018364584146 -0.00018677446106 -9.1233730892e-06 -0.00011650498458 -1.4104933091e-05 -9.9264641959e-06 
0.0002148918579 4.8750399032e-05 -7.8598659604e-05 -1.6700011124e-05 5.317805601e-05 -4.3009782635e-05 -8.386108248e-05 1.4827377861e-05 -5.3153475134e-05 