# vtk DataFile Version 4.1
vtk output
ASCII
DATASET UNSTRUCTURED_GRID
POINTS 1274 float
0.441655 -1.28121 -0.0305561 0.424426 -1.29676 0.133294 0.435248 -1.27623 0.29031 
0.196597 -1.34156 -0.139641 0.735316 -1.08165 0.00310642 0.749711 -1.26435 0.0601209 
0.494868 -1.29205 0.316279 0.725962 -1.23928 0.356461 0.809997 -0.958521 0.0540617 
0.879222 -0.983693 0.0938413 0.668169 -1.35414 0.176903 0.843865 -1.15322 0.316207 
0.868238 -0.48451 0.02434 0.786347 -0.283073 0.0285302 0.854459 -0.794672 0.16924 
0.845967 -0.83338 0.253878 0.838707 -0.547835 0.2072 0.797169 -0.192518 0.0635988 
0.811654 -0.578881 0.0310043 0.873047 -1.23169 0.128294 0.813748 -0.48599 0.0826919 
0.884799 -1.01229 0.215392 0.789918 -0.372929 0.274982 0.797983 -0.617235 0.199391 
0.7796 -0.127318 0.032244 0.819384 -0.647693 0.105374 0.806589 -0.202626 0.266862 
0.759435 -0.0606558 0.0338929 0.846678 -0.404097 0.0954677 0.821011 -0.301367 0.137004 
0.839686 -0.113445 0.0672231 0.807648 -0.413197 0.154445 0.820485 -0.343895 0.219024 
0.896257 -0.144441 0.09375 0.931742 -0.296891 0.0505971 0.784944 -0.213698 0.150644 
0.889775 -0.543631 0.0671836 0.813645 -0.268711 0.216144 0.811905 -0.436754 0.218364 
0.752078 -0.0414539 0.0996841 0.868207 -0.178808 0.0426561 0.872883 -0.276366 0.19101 
0.777235 -0.104911 0.192235 0.782943 -0.122557 0.264877 0.781091 -0.107122 0.117668 
0.937158 -0.191989 0.0262827 0.762694 -0.0506637 0.248405 0.752186 -0.0489589 0.163141 
0.621714 -1.28198 -0.271633 0.173144 -1.34919 0.297337 0.191108 -1.38115 -0.0436306 
0.0898484 -1.3292 0.179673 0.35499 -1.35563 0.478801 0.311461 -1.35565 0.386746 
0.298335 -1.31779 0.204608 0.466489 -1.33773 0.270401 0.240812 -1.33359 -0.232077 
0.411477 -1.4088 0.0500053 0.794033 -1.28051 -0.0802496 0.317785 -1.35379 -0.212772 
0.492392 -1.34995 -0.130303 0.467168 -1.32681 0.396096 0.528065 -1.29509 0.392339 
0.372812 -1.34005 0.224218 0.286954 -1.35923 0.0284046 0.745538 -1.20883 0.00744505 
0.529577 -1.35357 0.0227196 0.749339 -1.34996 0.27173 0.539677 -1.30328 -0.0974641 
0.537903 -1.24149 0.25671 0.72769 -1.32959 0.0548846 0.680286 -1.21318 0.249689 
0.530523 -1.27525 0.119023 0.405614 -1.27325 0.41649 0.713666 -1.26937 -0.0194372 
0.704142 -1.41281 0.133351 0.773646 -1.14446 -0.0074285 0.454671 -1.26433 -0.139783 
0.778967 -1.35434 0.0877934 0.814945 -1.2042 0.130865 0.823467 -1.03105 0.289252 
0.620191 -1.25623 0.393737 0.686481 -1.35015 0.434007 0.593471 -1.30204 0.248856 
0.648001 -1.26334 0.276644 0.577694 -1.31539 0.126412 0.852322 -1.118 0.0805968 
0.890463 -1.07799 -0.0246339 0.998119 -1.25591 -0.177073 0.803562 -1.17383 0.20797 
0.716669 -1.25935 -0.118899 0.902565 -1.1224 0.284284 0.838516 -1.07445 0.246822 
0.800152 -0.820198 0.0424556 0.877213 -0.256652 0.0321391 0.803325 -0.73748 0.0332801 
0.862546 -0.740442 0.112019 0.945132 -0.85945 0.213585 0.85412 -0.97499 0.162229 
0.860907 -0.762288 0.270011 0.857733 -0.563128 0.280609 0.867967 -0.973673 0.271624 
0.942227 -0.970733 0.19508 0.865996 -0.593957 9.72433e-05 0.857301 -0.607534 0.0731253 
0.844386 -0.891358 0.108555 0.867551 -0.515258 0.139337 0.910251 -0.760084 0.210253 
0.922356 -0.602897 0.253998 0.818867 -0.497012 0.278142 0.888572 -0.699748 0.313283 
0.931437 -0.367599 -0.00850763 0.898056 -0.700748 0.0675617 0.85433 -0.69761 0.166971 
0.829781 -0.289414 0.273674 0.981658 -0.196108 0.100555 0.907198 -0.436251 0.269526 
0.880569 -0.499863 0.241937 0.862884 -0.365531 0.286679 0.850044 -0.612703 0.157254 
0.873994 -0.200968 0.224241 1.00667 -0.331011 0.019773 0.94204 -0.661518 0.107562 
0.973533 -0.13053 0.0412709 0.879126 -0.278809 0.0963873 0.85983 -0.375838 0.161966 
0.868531 -0.0818404 0.260951 0.917525 -0.410232 0.205579 0.904507 -0.0977547 0.191652 
0.903277 -0.155736 0.281618 1.02563 -0.180952 0.0362167 0.852838 -0.135508 0.154841 
0.925026 -0.172048 0.150258 0.834579 -0.13549 0.220785 0.923165 -0.229365 0.100658 
0.864486 -0.208114 0.12635 0.0939715 -1.41341 -0.26396 0.384418 -1.35282 -0.192841 
0.464923 -1.40919 -0.397641 0.0352206 -1.33597 0.328725 0.263787 -1.33401 0.470738 
0.105288 -1.40668 0.183456 0.252353 -1.34761 -0.357759 0.595234 -1.33122 -0.342999 
0.177232 -1.34114 -0.30233 0.571268 -1.33363 0.463232 0.34189 -1.2877 0.502792 
0.172125 -1.34953 0.367187 0.278422 -1.41179 0.295354 0.0972606 -1.35259 0.0273067 
0.337882 -1.3355 -0.139992 0.120649 -1.34933 -0.263737 0.550218 -1.34681 0.308168 
0.390502 -1.40769 -0.0262338 0.191149 -1.32923 0.239148 0.277741 -1.351 0.116319 
0.369763 -1.29191 0.315091 0.494555 -1.28013 -0.236645 0.336985 -1.34881 0.0732469 
0.550827 -1.27111 0.20021 0.269985 -1.28267 0.151007 0.641791 -1.3247 0.391165 
0.935612 -1.29335 0.533046 0.625033 -1.36272 0.439016 0.415456 -1.28728 0.230216 
0.387808 -1.34593 0.155556 0.406102 -1.35002 0.0898849 0.660757 -1.29015 -0.1536 
0.636203 -1.32307 -0.227979 0.685247 -1.31934 0.232033 0.688432 -1.22214 0.412881 
0.786928 -1.30019 0.396124 0.841387 -1.26408 0.409019 0.540511 -1.36011 0.227108 
0.760655 -1.4147 0.163106 0.747687 -1.20341 -0.0911438 0.781436 -1.36259 0.191757 
0.851801 -1.23366 -0.118925 0.833482 -1.08982 0.0168551 0.929382 -1.00895 0.274018 
0.85662 -0.89488 0.322885 0.619375 -1.25544 0.0712139 0.808929 -1.05459 0.162639 
0.858983 -0.902638 0.0323516 0.738112 -1.24014 0.204809 0.931288 -0.667723 0.216744 
0.937363 -0.805282 0.152455 0.8122 -1.13225 0.144272 0.957663 -0.479405 0.27002 
0.823042 -1.20995 0.274195 0.864336 -0.3603 0.0368369 0.930277 -0.57284 -0.00668072 
0.923092 -0.863718 0.0174689 0.894292 -0.736648 0.0106912 0.903179 -0.790877 0.0521953 
0.889015 -0.913038 0.160855 0.876417 -1.19231 0.228082 0.901286 -0.446264 0.0722855 
0.96925 -0.286427 0.116281 1.00904 -0.376655 0.0721793 0.955272 -0.41024 0.0506963 
0.911118 -0.711191 0.148754 0.994759 -0.647814 0.241136 0.979819 -0.212112 0.166153 
0.907963 -0.309346 0.251663 0.911471 -0.594251 0.17298 0.977604 -0.783189 0.202109 
0.927613 -0.483202 0.182881 1.02402 -0.804314 0.122303 0.973608 -0.626992 0.169345 
0.987557 -0.246264 0.0519131 0.960761 -0.284608 0.207764 0.922447 -0.335377 0.169604 
0.997003 -0.47239 0.20635 0.313056 -1.4153 -0.361542 0.21394 -1.39793 -0.324563 
0.0440384 -1.4135 -0.0235916 0.540132 -1.2831 0.531312 0.0339866 -1.41162 0.189002 
0.136273 -1.34745 -0.0893019 0.366258 -1.30001 -0.394473 0.0368995 -1.38272 0.0408432 
0.0997523 -1.32211 0.533199 0.376433 -1.40603 0.188984 0.17464 -1.41312 0.441394 
0.387249 -1.3322 0.5325 0.101385 -1.37277 0.247497 0.395377 -1.34901 -0.258122 
0.262256 -1.35048 -0.156126 0.284415 -1.41429 -0.201285 0.164526 -1.33581 0.173063 
0.427391 -1.29137 0.501666 0.0914591 -1.40035 -0.183784 0.994014 -1.41418 0.443555 
0.260519 -1.4073 0.215234 0.33175 -1.32966 -0.0100816 0.47252 -1.35142 -0.244632 
0.217747 -1.32968 0.0228002 0.617032 -1.41374 0.209108 0.503113 -1.4131 0.145574 
0.580877 -1.28366 0.333355 0.353345 -1.35739 0.333786 0.237081 -1.34978 0.174836 
0.399587 -1.34776 0.288513 0.84523 -1.4127 -0.179603 0.228176 -1.37281 0.281565 
0.454879 -1.35331 -0.0246842 0.237925 -1.31831 -0.0485054 0.436183 -1.41526 -0.138503 
0.3912 -1.32996 -0.0446359 0.57857 -1.34566 0.376823 0.67563 -1.27357 0.333656 
0.388083 -1.34605 0.0227676 0.463648 -1.35187 0.0468422 0.87846 -1.29082 -0.0689079 
0.460859 -1.35759 0.140484 0.405531 -1.35791 -0.134311 0.490598 -1.29785 0.172649 
0.513324 -1.29926 0.243117 0.443709 -1.34751 0.203786 0.754841 -1.22779 0.298598 
0.625766 -1.28693 0.164551 0.873181 -1.19236 -0.0560104 1.03226 -1.34339 -0.0577913 
0.485729 -1.29408 0.0204875 0.646144 -1.30638 0.0470008 0.941454 -1.38062 -0.0242103 
0.806534 -1.29804 0.0777055 0.791318 -1.27168 0.249398 0.634145 -1.36474 0.251738 
0.728493 -1.28161 0.268908 1.05764 -1.35789 0.345402 0.781105 -1.32768 0.020254 
1.00634 -0.395584 -0.00566154 0.915697 -1.02229 0.0392426 0.957392 -0.696541 0.0331862 
0.855716 -1.26237 0.0745719 0.913857 -1.15254 0.130671 0.937311 -1.21748 0.0987986 
0.973796 -0.563872 0.286622 0.862495 -1.12037 0.19625 0.884591 -1.29547 0.24791 
0.922466 -0.917424 0.0666845 0.950387 -0.760757 0.100133 1.00967 -0.703582 0.0861956 
0.965773 -0.56389 0.0598582 0.932266 -0.881306 0.123805 0.918487 -1.15259 0.1999 
0.912852 -1.08283 0.108946 0.97933 -0.72104 0.160595 0.919168 -1.01857 0.133369 
0.942406 -0.156771 0.220869 1.00708 -0.770293 0.0595358 0.991129 -0.862848 0.153913 
0.980139 -0.868362 0.0677949 0.965601 -0.454354 0.116465 0.953564 -0.372129 0.279768 
0.0341704 -1.39629 -0.224497 0.0314968 -1.4142 -0.153593 0.0354887 -1.40763 0.46873 
0.0835076 -1.41424 0.293631 0.0954202 -1.39194 0.528368 0.118517 -1.41553 0.469317 
0.0800056 -1.40741 -0.34088 0.179621 -1.40473 -0.394952 0.41201 -1.36684 -0.403062 
0.0336237 -1.41208 -0.290432 0.0839482 -1.41294 0.0823871 0.312144 -1.4091 0.463947 
0.0351475 -1.41055 0.340231 0.265343 -1.40867 0.364964 0.163839 -1.41182 0.531975 
0.368269 -1.3417 -0.323947 0.145738 -1.41429 -0.333744 0.157002 -1.4147 -0.272367 
0.66562 -1.41014 -0.299002 0.444655 -1.41294 -0.238467 0.14743 -1.41367 0.0952686 
0.152707 -1.35351 0.430698 0.455288 -1.34786 0.528517 0.109656 -1.34396 0.327455 
0.542235 -1.40619 0.403319 0.208046 -1.38246 0.0870112 0.340149 -1.40789 -0.160739 
0.340479 -1.41419 0.0948792 0.256497 -1.41084 -0.0639592 0.445944 -1.34687 0.456865 
0.386686 -1.33914 0.422222 0.327875 -1.40986 0.246211 0.772277 -1.346 0.526426 
0.238365 -1.34307 0.342033 0.48323 -1.35905 0.338562 0.555475 -1.35021 -0.223717 
0.440668 -1.32498 -0.186397 0.112286 -1.35445 0.109298 0.488622 -1.40644 -0.182592 
0.329525 -1.32666 0.275465 0.326804 -1.34913 0.158726 0.511206 -1.34931 0.436788 
0.439288 -1.33313 -0.0882213 0.524374 -1.40991 0.0653025 0.723722 -1.2592 -0.304911 
0.696582 -1.31012 -0.216809 0.637305 -1.41474 0.0661553 0.637167 -1.2961 0.458737 
0.728978 -1.411 0.235771 0.620254 -1.36031 -0.279888 0.496019 -1.40908 0.209387 
0.781911 -1.35286 0.357858 1.03676 -1.27616 -0.102422 0.643922 -1.28977 -0.0221945 
0.530809 -1.34847 -0.0459773 0.682825 -1.37389 0.0496354 0.602925 -1.35434 0.0759155 
[...]
POINT_DATA 1274
FIELD FieldData 10
VELOCITY 3 1274 double
-0.75604784626 0.099032149862 -0.13938375186 -0.52956501291 -0.0044801736873 -0.28230523483 -1.0230864753 -0.24616612202 0.11107567773 
0.062085016494 0.092826580431 -0.46448499458 -0.048210178661 -5.1435445268 -0.10599651983 -0.28057300561 -0.63081529278 -0.21458737833 
-0.6480778978 0.12755377285 -0.21282432486 -1.1284843091 0.66658050394 0.64363170691 0.14695710326 -5.0049338406 0.052152320958 
0.32836198668 -4.8185494801 0.060860466043 -0.74344595995 -0.034354141256 -0.10882680469 -0.57800266167 -2.3220261561 1.2377079599 
0.77439545778 -3.6614202341 -0.067104919201 0.35041661959 -2.8449227883 -0.085161457284 0.40840497368 -4.6197481018 0.02647955751 
0.33856198507 -4.5273195544 0.13598063451 0.45593459204 -4.1209570855 0.090294791215 0.63431562972 -2.6902409591 0.13736430357 
0.34961577928 -3.8909893851 -0.24685182038 0.22122978545 -1.520244572 -0.071508038721 0.40349472055 -3.8238484745 -0.17237461721 
0.25017059195 -5.0101025511 -0.041229635536 0.13600701996 -3.6246640679 0.12889617903 0.0061214028643 -4.0905759203 0.10408898979 
0.77279446137 -2.6739137054 -0.055283742968 0.32684913308 -4.4139341629 -0.10800858534 0.81837968896 -3.0282250887 0.10087905313 
0.92264820556 -2.5453141085 0.00353693486 0.22261843089 -3.7296715292 -0.14154992344 0.6350499126 -3.1469258323 0.10957125828 
0.82889338425 -2.731435693 -0.12200939154 0.15292735595 -3.7188469919 0.053919412086 0.52633024148 -3.4852263348 0.30863599168 
0.8440320607 -2.9305164097 -0.34888951957 0.47117074903 -3.4732406593 -0.053545989183 0.41764998093 -3.1896925473 0.18124086079 
0.11436812116 -4.2195758226 -0.17719023338 0.80381106856 -3.3469208018 0.098273876279 0.30578724849 -3.8098075679 0.047608388251 
1.0208649697 -2.6876050254 0.10977592678 0.69458381199 -2.9718943147 0.061536676189 0.85451661082 -3.3179878758 0.19152268484 
0.96246331901 -2.8071745546 0.027731105771 0.96855991223 -2.8660556844 0.0032903157419 0.92050636845 -2.7652246384 0.022300419108 
0.64586621855 -3.0780342078 -0.19436051204 1.0421245035 -2.7778082007 0.095947752652 1.0104181884 -2.6871349389 0.11050799712 
-0.67209298292 -0.28463311351 -0.0096629300929 -0.13932905239 0.077743439901 -0.16826721721 -0.026870209682 0.059637505393 -0.21838410798 
-0.29827829908 0.052226100482 -0.2979492454 -0.32708438305 0.11143994574 -0.09803339745 -0.20278113508 0.060342046933 0.11322884123 
-0.24473558028 0.075616754579 -0.1718045297 -0.39998064853 -0.20557222019 -0.062306320818 -0.88991800422 -0.26792048479 0.030737721323 
-0.16657380201 0.00066450161316 -0.058617515295 -0.60999045912 -0.324609694 0.061296954396 -0.72883851119 -0.16763609504 -0.014829827682 
-0.4848306325 0.10995381397 -0.13340884452 -0.42189402584 0.10443737795 -0.053106191052 -0.3303883333 -0.069964971734 -0.054317758233 
-0.57405019287 -0.056085152998 -0.039000412072 -0.29952446388 0.16572532547 -0.06189575837 -0.44346190244 -0.51519429991 -0.76080432456 
-0.75534032871 -0.14893008168 -0.3346601629 -0.62280519745 0.038270209293 0.15406950115 -0.56668931771 0.40289192614 -0.16467932214 
-0.80414490621 -0.10531656497 -0.21721543905 -0.50711982654 -0.54838853904 0.032400290491 -0.78542676067 -0.62390979322 -0.059166281566 
-1.0621676008 0.17153462774 -0.17205441871 -0.21431381237 0.025933546818 0.072546017238 -0.92421377089 -0.43084843257 -0.40332285472 
-0.17125876792 -0.0024040641482 -0.23895325096 0.51816855384 -0.9776962517 -1.206289239 -1.1939415698 0.049337124361 -0.1023846085 
-0.88636796176 0.25006580756 -0.057146221045 -1.1240811638 -4.0563867906 -0.09406871678 0.23265401904 -4.9318752425 0.12683337293 
-0.99925325176 -0.16131467324 0.27872866942 -0.39064956761 -0.055808945455 0.12130267793 -1.1606067316 -0.21313520922 0.1639786359 
-1.0675869452 -0.3541620752 0.19959946567 -1.3459310122 -0.22758446561 -0.15791384795 -0.66351333553 -3.1280707346 -0.66672387523 
-0.32234499516 -2.7257615306 -0.73062367278 0.26128683696 -0.37863575582 -0.67661543524 -0.97205889927 -2.8447406055 -0.34309997805 
-0.89299841268 -0.25334002721 -0.63421348437 -0.67329848318 -2.7923487406 0.54153567814 0.16830863407 -5.0207963422 0.15957282909 
0.21663882077 -4.7137404699 0.020265959856 0.66640021905 -3.0663035105 -0.012092483562 0.05490019338 -4.6407582421 0.00070048278386 
0.24765553889 -4.6582991636 -0.013598032121 0.27096936361 -4.8917801821 0.042406961122 0.20706158947 -4.9971555713 -0.017079860441 
0.35849842632 -4.4909433642 0.028269685887 0.58627272699 -3.9505767454 0.15175513367 0.22175883377 -4.9246769425 0.010177633847 
-0.30179494036 -3.9377199945 -0.32344029051 0.050585189559 -4.3474129596 -0.26469259043 0.26808408187 -4.339309768 -0.11750180512 
0.27645226894 -4.8610136235 0.055071230289 0.31459188212 -4.1519740797 -0.088253273528 0.43151294477 -4.6619390431 0.032574215825 
0.46022162386 -4.3432455599 -0.03024187354 0.34725652172 -3.9937370361 0.11117261655 0.10610136053 -4.2924769337 0.28992679511 
0.25108915745 -3.4228063217 -0.43543956988 0.30977614786 -4.6292148905 -0.1191108032 0.11977168747 -4.5858161571 0.066876627792 
0.60624903155 -3.4210144004 0.15869726658 0.48396544971 -3.1235898746 -0.20302946493 0.30010172651 -4.0632185039 0.021193709729 
0.42273275315 -4.1183366579 0.13098637371 0.25707766001 -3.9318941801 0.27036140875 -0.023179567899 -4.4122441009 -0.16437601595 
0.77021582867 -3.1067807045 0.0051325149094 0.14212276836 -3.7700999061 -0.1846786682 0.23333140032 -4.6489116809 0.051966959256 
0.14914587827 -2.6042703244 0.15020254028 0.69610228579 -3.4095300757 -0.060520636455 0.24309550882 -3.9166685617 0.027737999203 
0.7289688365 -2.7194475487 -1.2655085027e-07 -0.041333208381 -3.943906302 0.016311388765 0.69039125955 -2.7209989949 -0.057126509805 
0.29295355863 -2.7511333894 0.28210486135 -0.11326626154 -2.970479588 -0.14568730836 0.74560511918 -2.9036392328 -0.10191245517 
0.47764393142 -2.9794403916 -0.1470379673 0.93852473785 -2.9406295213 -0.018942810772 0.31474350984 -3.0084077609 -0.083006786767 
0.42090481821 -3.1347107359 -0.2847801051 0.047500260895 -0.0002389392708 -0.12434239698 -0.66933544824 -0.11378761615 -0.23433630999 
-0.5004625863 0.00098190162487 0.0031945189021 0.0073772230952 -0.17954390865 0.08096146987 -0.14028512479 -0.038255997368 0.155311985 
0.012553173677 0.011299705987 0.12662076526 -0.22888307404 0.083251064829 -0.16564702082 -0.44541237676 -0.017614226425 0.048178779478 
-0.28497254779 0.01267677291 -0.38554359845 -0.45124872139 0.076445202845 0.027351930752 -0.47069130396 0.04944191144 -0.056078579613 
0.061357884683 0.0078707373717 0.0071021438466 -0.13976914816 -0.0028031015645 -0.011026152891 0.032983453307 0.02536281265 -0.27834990202 
-0.47468116818 -0.013192635645 -0.0018529290418 -0.17258204624 0.091446963689 -0.2042146031 -0.39691352027 -0.040936856886 -0.18054078804 
-0.34776831119 0.0012757473427 0.0076059436034 -0.25033786701 -0.021686506329 -0.28150232981 -0.4630319945 -0.059279503807 -0.028624072898 
-0.64813088168 -0.14790122994 0.067636300395 -0.65364016719 0.2638149251 -0.34743844137 -0.20950939421 -0.04699776627 -0.08121262256 
-0.61451670759 0.040294931982 -0.27339593577 -0.96039023639 0.041888700632 0.10359043752 -0.50965026766 0.099462227337 0.17690721076 
-0.31605451686 -0.14741479085 -0.00019573389476 -0.40875261855 0.011246632676 0.16174392167 -0.84443595387 0.17638756551 -0.056923652081 
-0.37695179139 -0.071371617402 -0.17815477313 -0.15144032197 -0.082331425522 -0.13268984817 -0.68186805123 -0.31170606842 -1.2139073901 
-0.62771546213 -0.0005462382627 0.26274398881 -1.1091791669 0.025162397532 -0.022453399112 -1.1034474381 -0.081010634792 1.0544155429 
-0.4381598278 -0.16380115699 0.53788876423 -0.66738678614 -1.3373485909 1.0168020229 -0.88388913005 -0.46527126283 -0.36993199419 
-0.27801039826 0.020020752543 -0.011796859779 -0.89838834156 0.30609770099 -1.1718831372 -0.6967403685 0.034343816219 0.36767875354 
-0.29014560383 -1.0224611443 -2.0218932613 -1.0544247247 -3.4101347781 -0.63874862024 0.11430759688 -4.7986588672 0.086434046422 
0.0071571199494 -4.862160925 0.3022494945 -1.2414088526 0.27227416465 -0.64747032913 0.22924644875 -5.0085816869 0.010953585249 
-0.18999836477 -4.784579229 -0.18676921069 -0.88111482739 -1.9142880375 -0.067988198364 0.10982115663 -4.5122072514 0.15763057306 
0.44765527969 -4.7342274911 0.025017522555 -0.70394301847 -3.4930369344 -0.74416315643 0.067796146036 -4.0577625494 0.057671263756 
-0.40175904569 -1.7314346002 0.23173400673 0.36603441502 -3.3516062678 0.010064477391 0.048439797456 -4.2284923956 -0.30558913905 
0.14670173097 -4.9045741724 -0.092398377341 0.18154641576 -4.6804532046 -0.11416338814 0.28964646736 -4.6956516289 -0.10689583856 
0.15509749717 -4.9395619939 0.097035097948 -0.85915950368 -3.0860522682 0.46563888657 0.054481415011 -4.0760626621 -0.41193097297 
0.056895250274 -3.4880866613 -0.10507411725 -0.11904795896 -3.7333372355 -0.2058150264 -0.013781060887 -3.9121738171 -0.41117895493 
0.16969969093 -4.5495590684 0.062721432567 0.16681958357 -4.6387565592 0.1190795261 -0.0049538478983 -3.1761961766 -0.041250914742 
0.011669243055 -3.6775303857 0.038504909745 -0.070701413353 -4.2735584088 0.0011683096037 0.41515546123 -4.7281499823 0.062064760829 
0.21666888759 -3.9992247759 -0.034547132708 0.066524954998 -4.8729511666 -0.0086192312503 -0.053326930354 -4.4190771559 -0.020147518921 
0.40895867503 -3.4013326708 -7.8597558309e-05 -0.11791829848 -3.3990663149 0.018205130569 0.09404062247 -3.6820449271 0.013760672145 
0.16293050822 -3.9340411435 -0.11694640129 -0.042414251352 -0.00038160135234 0.032353028088 -0.017917412519 0.028678039899 0.0049506170349 
-0.15419071677 0.00043360611005 -0.062190449432 -0.55445884426 -0.031740288069 -0.0038265637844 -0.0030814589279 0.037494581306 -0.096860269314 
-0.076588441587 0.064953805315 -0.015459848945 -0.1791906339 -0.10985869797 -8.5975947981e-06 -0.0085698800814 0.094477008772 -0.053672514207 
-0.23953407357 0.10025047439 0.00044819913567 -0.14533767268 -0.038825209867 -0.036188998147 -0.12974595951 -0.022754952033 -0.056706112862 
-0.45009487087 0.094900218654 -0.0042629077454 -0.0059318013703 -0.27730879646 -0.29943452096 -0.3543213117 0.081525748161 -0.17000957951 
0.17308959181 -0.089241705892 -0.03576168117 -0.024867815166 -5.3044925444e-05 -0.00041174337449 -0.29374885004 0.017922235023 -0.28008280121 
-0.34149927017 -0.13652288906 -0.20773618352 -0.032219951119 0.23007989833 -0.016817324003 -0.24758905573 0.0058275508354 0.10426793382 
-0.17241088252 0.0012866486828 -0.12723617437 -0.62426263588 0.1916349431 -0.37616136761 -0.24945972219 0.041376035448 -0.28332696013 
-0.77564082821 -0.11368438098 -0.1761843306 -0.24202291262 -0.0060938815456 -0.074306778018 -0.21450053471 0.0030483398083 -0.045520475752 
-0.73819524838 0.059812002608 -0.0013742517462 -0.40778071117 0.11730845394 -0.032037866218 -0.32024894764 -0.067293485017 -0.046147055792 
-0.44530008383 0.045528169416 -0.082327592035 -0.3845727874 -0.0024346290464 -0.33048527735 -0.17032304094 -0.068667872495 -0.092218033472 
-0.74862285926 0.11418725333 -0.078007687552 -0.2470462505 0.22360145186 -0.18586422664 -0.034381547395 -0.0039240276354 -0.051917466075 
-0.62100792497 0.02354769172 -0.36965219991 -0.27177335788 0.0064672364731 -0.11309850394 -0.79470175267 0.12880534795 0.19569935371 
-0.93291119437 -0.26111696227 -0.32386675262 -0.6649797607 0.019208712826 -0.087001621054 -0.31634716587 -0.224071582 -0.7663615407 
-0.56610953359 -0.021450292832 0.011380646953 -0.36448023918 -0.024400598502 -0.33423816905 -0.93269611861 0.32290873524 0.0016450470102 
-0.52132304839 -0.20688226275 -0.31846807702 -0.65068816247 0.026744405433 -0.018015104868 -1.1408302569 -0.053209973547 0.48574435939 
-1.3295479372 0.24295158685 -0.25731496389 -0.174079313 -2.194294083 -0.93198932453 -0.045598181015 -0.47712500122 -0.67611274953 
-0.74080256736 0.00744209503 -0.17607484019 -1.1554564353 0.35858175154 -0.77628433419 -0.51070136111 -0.55354035665 -0.088046295177 
0.11870282852 -0.026107802407 -0.28569311232 -1.3952822705 -1.2704018152 0.15241919306 -0.91723737073 -0.13283247543 0.26476285965 
-1.460505075 -0.16832304571 0.6471168218 0.58156439678 -0.37804088299 0.58645627236 -0.84420404427 -1.1011217045 -0.60029413198 
0.36990668985 -3.6034082545 -0.28467993549 -0.13105706943 -4.9788580653 -0.16896882223 0.15339036889 -4.5007323692 -0.013768769335 
0.90756153984 -1.0381796943 -0.7027030036 -0.2212650015 -2.0183327443 -0.029606568406 -0.1551385107 -1.5323264498 -1.0378402386 
0.33144635998 -4.1041414812 0.18408451149 -0.87495829986 -4.2809983298 -0.051685392775 0.091375499054 -1.0941651161 0.87238639956 
-0.1746347667 -4.4797559963 -0.46290156785 0.17130917114 -4.6078463932 0.047788772975 0.22518206629 -4.7716038167 -0.086038223037 
0.10149718495 -4.3768097051 -0.21962743595 0.035171090011 -4.9476563968 -0.081941778963 -0.2860954531 -3.8006895247 0.041961541986 
-0.94161034964 -1.9926125854 -0.36405130551 0.17176801032 -4.6946186457 0.023817239751 -0.091550101276 -2.1836835452 0.19909886164 
-0.040425827394 -2.7871478575 -0.017772340445 0.020498720644 -4.7937806176 -0.0095325614662 0.050706477329 -4.8983209164 -0.12819960928 
-0.042202529603 -4.704566048 -0.2336005905 -0.13308320869 -3.9282262367 -0.36414153894 -0.01906373771 -3.61009791 0.16516904485 
-0.001293609375 0.11765981963 -0.06666449435 -6.0463024283e-07 1.1236569519e-07 0.03067081915 0.00088862631665 -0.010637724985 -0.00086986036301 
-0.024874756724 0.0041268839992 -0.046966302024 -0.040958896566 0.08916763028 0.0017749207264 -0.085174563867 -0.0012062850877 0.024112554617 
0.0014572477096 0.046501184994 -0.01228084431 -0.01394807601 0.022008805954 -0.0014310130929 0.0059122719125 -0.10097121465 -0.028900103492 
0.00026760287603 -0.00042319200459 -0.018982767823 -0.070982161454 -0.0011932170104 -0.06124174478 -0.20599069829 -0.00097355074352 0.023182262257 
8.1994064492e-05 -4.2522981875e-12 -0.0041965249097 -0.064409014669 -0.0087310977075 0.0011771931005 -0.069341165278 0.0016219387143 0.00013850859706 
-0.25055186041 -0.054449434225 -0.20472629809 -0.0055036249331 0.00023147823973 -0.0033986016881 -0.013176798545 0.00014486676772 -0.0036607993134 
-0.20699413409 -0.0002202490117 -0.25084962601 -0.0090133319789 0.0016212961277 -0.014981448242 -0.05576760069 0.00051727315949 -0.1484762468 
-0.326706082 -0.092613645698 -0.06061616993 -0.45702667895 0.15467493733 -0.0057856853767 -0.047453856271 -0.12081827202 0.074692837696 
-0.20259192318 -0.00012835642328 -0.029841137423 -0.075278081916 0.02596430091 -0.24303096479 -0.027162783847 0.00045544663267 -0.0031726798094 
-0.19232446551 -0.00041846032069 0.12063354199 -0.034325886939 -0.0079716106517 -0.058605164813 -0.44570908292 0.066574842951 -0.031834105316 
-0.375913844 0.052823795464 -0.15445492755 -0.1917405603 -0.0016197140847 -0.072256730609 -0.26535542019 0.018346207858 -0.0025485651056 
0.062179793774 -0.29391421806 -0.07106724596 -0.28134682146 0.067754150547 0.0062720781468 -0.62659139138 0.066021644377 -0.057370460719 
-0.55685258646 -0.3337964731 -0.22792225823 -0.25301713008 0.022214442226 0.15655441242 -0.0078137485395 -0.021024418364 -0.01889830774 
-0.48410020845 -0.28683540865 -0.012152147567 -0.38589634451 0.076456393481 -0.25729401935 -0.45469446553 -0.054310069166 -0.10148049019 
-0.56914916979 0.10497851264 -0.24275183528 -0.19557891551 -0.0033603286092 -0.14848471352 -0.18039077437 -0.048589155799 -0.43426569187 
-0.49057557003 0.027258815187 -0.37677231848 -0.76247603551 0.00047154015518 0.47526323197 -0.43808548003 0.0058378686022 0.25083374144 
-0.6716884833 -0.015394395491 0.079855811382 -0.3412691649 -0.1980722593 0.18507633874 -0.16655835618 -0.47236026619 -0.0024756195162 
-0.33964396032 -0.015895761006 0.22827462486 0.54246646774 -1.3461804468 -0.43355804881 -1.0401001014 0.19876124462 -0.48316392745 
-0.48222432404 0.019864747518 -0.29952708591 -1.091529932 0.055899744698 -0.30275755864 -0.94975233278 0.24791386711 -0.4502726743 
-0.71496809203 0.1479937307 0.15957630099 -0.5587846403 0.028695944944 -0.00065937931021 0.22244072933 -0.2324028235 0.50656737024 
0.054403992936 -0.38286046423 0.16276396367 0.24573876939 -0.36244942241 0.96698071155 -1.2642005281 -0.68526527381 -0.087671557056 
-1.7887544869 -2.1112291574 -0.066229822422 -0.74673794177 -1.1331888948 -0.38627921484 -1.0538000157 -0.019599659307 -0.11796319626 
-1.4912229301 0.043302559503 -0.47357694201 -0.85566173706 -1.388094326 -1.144300089 -0.77512044264 -0.58018288397 -0.16433845433 
-0.32867809035 -0.9705450057 0.7970490344 -0.28125535205 -0.16740654521 0.41852412478 0.74279255473 -1.9356728107 -0.4509866155 
-0.1481154614 -4.1470308773 -0.55399387743 0.067183450032 -4.7129294667 -0.056540567738 0.3193709565 -1.3693304559 -0.95791686099 
0.4852428858 -1.9878798208 -0.72760260305 -0.19535539344 -4.1382405582 0.019065152795 -1.2208334964 -0.57483528951 -0.59318850395 
0.25864148898 -3.6531993301 0.55513469733 0.00015291498432 -1.2267269151 0.41970272719 -0.5258331133 -2.6466492756 -0.19157457908 
-0.061154703867 -1.6725998316 -0.011117452742 0.067858540772 -4.2397503553 0.25825226062 0.070024459473 -4.3538440062 0.41810316369 
-0.49812192149 -1.2436438429 -1.3598263199 0.06344276906 -3.7830425492 -0.68592796114 -0.38099800222 -3.711153864 0.037033197584 
-0.44217660331 -2.8846331137 0.24158387699 0.29128731138 -2.4794945325 -0.46335601114 -0.22653163702 -3.9027864202 -0.38026927128 
-0.0015963305133 -0.0001192526129 -0.01923145181 1.4514849341e-06 0.076612696203 0.10021654302 -0.065268620057 -0.018742634684 0.0022217578419 
0.00092383922861 0.0022366181972 -0.053098008899 -0.14733142081 -0.038197121069 -0.00022457266386 -0.1558188229 0.007969041425 0.0020436217451 
0.00089500891863 -0.1188250426 0.10795887512 -0.016361369232 0.024936079831 9.7672008965e-06 -0.073519294629 -0.0003006240218 -0.0089662600598 
-0.25411238356 0.02395062107 -0.1765540232 0.0027804549978 0.00094077722466 -0.088749545793 -0.12780116908 -0.14988762319 -0.0095787750157 
-0.10691791084 -0.0058503235614 -0.1532579992 -0.038669017026 0.00026151312228 -0.035966256484 -0.11633172575 1.1121187423e-07 0.19208818488 
-0.0042502935202 0.0001128306069 5.0352556625e-05 -0.29176853041 0.142890745 -0.0012463352084 -0.02194882575 -7.8080315496e-05 0.01361782041 
0.20326966429 -0.029933550221 -0.1571395122 -0.015888300273 -0.00025768742223 0.012071455276 -0.024333575098 -0.00026168466764 -0.066104119697 
-0.17297783469 -0.035336599717 -0.12526302369 -0.023806548581 0.0009997171233 -0.036081780662 -0.26674442163 -9.1689624232e-06 -0.023711387089 
-0.24047787151 -0.00079061019121 -0.14504061347 -0.12051481764 -0.0031588205 -0.18327611173 -0.44701840604 -0.09045998286 -0.077125060677 
-0.03739229098 -0.00076651018663 0.0014198780603 -0.017121747048 -0.023226893844 -0.096398807807 -0.30002912682 -0.07321050953 -0.04075168338 
-0.24115040408 -0.24076965436 0.12821967253 -0.34185909591 -3.0439784294e-05 0.0010148482994 -0.054518618283 -0.00010886834666 -0.047542769282 
-0.4766147002 -0.10462403481 -0.03746645731 -0.55883980591 -0.0072268579328 -0.18929390142 -0.087443628244 -9.4718649562e-09 0.014305122707 
-0.19618233105 -6.1910871591e-05 0.031591456768 -0.03144201771 0.0087085148642 -4.949178116e-05 -0.36617187693 0.081999674255 -0.1511367173 
-0.73681051068 0.029954311834 -0.19688309871 -0.48711819081 0.00071741862873 -0.37558544854 -0.36824230554 0.033379796017 -0.16866550929 
-0.026921577025 -0.00031529609154 -0.078998382445 -0.53579580788 -0.052232758476 -0.22658563377 -0.40583729733 -3.0545898611e-12 -0.05919391296 
-0.24435992405 0.21263843956 0.016075560763 -0.25600757864 -0.03145909832 -0.013730534466 -0.36809815997 0.0034378453882 -0.15763261365 
-0.47589140067 -0.0069190850554 0.00014386811181 0.21431396989 0.24928269906 -0.084179300169 -0.25291088028 -0.14964457736 -0.4165152963 
-0.16291027786 0.027577500468 -0.07300678976 -0.45888940393 0.11809674898 -0.089829273861 -0.65687650335 -0.15797426049 -0.072568020051 