# vtk DataFile Version 4.1
vtk output
ASCII
DATASET UNSTRUCTURED_GRID
POINTS 1274 float
0.322343 -1.29614 -0.0519736 0.329543 -1.29951 0.120378 0.367665 -1.29407 0.286831 
0.199293 -1.33974 -0.190587 0.513419 -1.21289 0.0464774 0.551005 -1.25319 -0.00532096 
0.427092 -1.28804 0.316556 0.565713 -1.22299 0.454192 0.631995 -1.23312 0.0315306 
0.718516 -1.24225 0.0453517 0.580536 -1.35825 0.185629 0.693498 -1.22239 0.41377 
0.900196 -1.17476 -0.0512525 0.845918 -0.908312 0.0140527 0.789537 -1.24349 0.158337 
0.842673 -1.23717 0.268745 0.815685 -1.18187 0.224232 0.871369 -0.786358 0.0913609 
0.767279 -1.17045 -0.00259368 0.740773 -1.34678 0.047486 0.825285 -1.12457 0.0253944 
0.787156 -1.26455 0.229301 0.771516 -1.10692 0.281164 0.748941 -1.20934 0.2337 
0.880257 -0.723683 0.010515 0.724263 -1.20218 0.0973826 0.87571 -0.85661 0.286075 
0.916285 -0.634961 0.0344942 0.894329 -1.0945 0.0629739 0.89424 -0.951284 0.132227 
0.942347 -0.706607 0.0431279 0.806334 -1.1306 0.146328 0.833671 -1.07917 0.26372 
0.971681 -0.797094 0.0355263 1.00322 -1.02998 0.0208398 0.855443 -0.896314 0.181933 
0.880516 -1.1806 0.0292439 0.861453 -0.966753 0.244405 0.817259 -1.11405 0.209049 
0.925669 -0.630558 0.114844 0.919215 -0.84056 0.026493 0.918841 -0.982697 0.213757 
0.920391 -0.716327 0.194301 0.879725 -0.744653 0.265671 0.919088 -0.707411 0.119135 
0.986309 -0.843866 -0.0284557 0.930651 -0.658222 0.261169 0.923957 -0.647373 0.181928 
0.542476 -1.29717 -0.287359 0.167954 -1.3406 0.28569 0.168462 -1.37305 -0.0520181 
0.0370421 -1.32474 0.162875 0.3132 -1.34669 0.47039 0.277127 -1.34945 0.393253 
0.258642 -1.31478 0.173277 0.409038 -1.35096 0.282647 0.152555 -1.35415 -0.240446 
0.381421 -1.41 0.0551532 0.712218 -1.29049 -0.159775 0.264803 -1.3474 -0.218182 
0.437019 -1.34609 -0.138555 0.400365 -1.33731 0.393607 0.451464 -1.29164 0.387933 
0.308152 -1.35089 0.206428 0.238021 -1.34761 0.0380734 0.608557 -1.19705 -0.0973905 
0.460275 -1.35119 -0.00533108 0.629067 -1.34557 0.290356 0.483506 -1.29022 -0.124888 
0.435365 -1.22489 0.240986 0.622835 -1.35662 0.00433162 0.528217 -1.23348 0.212065 
0.402264 -1.29841 0.0944134 0.39137 -1.28029 0.429326 0.604238 -1.26847 -0.0750374 
0.648406 -1.41278 0.100248 0.676843 -1.22671 -0.200817 0.307893 -1.28236 -0.178995 
0.636231 -1.3579 0.0661003 0.613988 -1.29508 0.00425144 0.612065 -1.2304 0.26431 
0.511546 -1.26504 0.428834 0.613693 -1.32455 0.455546 0.494411 -1.28124 0.255215 
0.557247 -1.26833 0.288621 0.509769 -1.3344 0.124434 0.684557 -1.27744 -0.0037215 
0.793338 -1.19239 -0.172603 0.983502 -1.27391 -0.241621 0.674992 -1.29996 0.165196 
0.594331 -1.26627 -0.181102 0.798346 -1.26834 0.332322 0.727475 -1.28862 0.209553 
0.685117 -1.17056 0.0079238 0.986041 -0.920343 0.0198066 0.798408 -1.22501 0.00606784 
0.805428 -1.26186 0.0661303 0.925823 -1.28983 0.176527 0.740764 -1.26973 0.103825 
0.860518 -1.20969 0.347407 0.870067 -1.14434 0.378446 0.698251 -1.24444 0.247798 
0.882785 -1.3445 0.21036 0.80182 -1.15524 -0.0527716 0.824438 -1.19733 0.0783415 
0.708378 -1.24066 0.174903 0.871598 -1.15155 0.104281 0.872887 -1.23296 0.197155 
0.940285 -1.16132 0.316859 0.784302 -1.17125 0.297559 0.864771 -1.20098 0.450776 
0.971115 -1.08271 -0.0867853 0.86368 -1.24844 0.0317587 0.72434 -1.17916 0.156847 
0.895738 -0.998414 0.315981 1.06226 -0.86935 0.0684049 0.881016 -1.09575 0.319475 
0.867417 -1.15494 0.270575 0.81071 -1.09988 0.352075 0.761567 -1.15191 0.0566208 
0.970636 -0.886361 0.216746 1.03337 -1.09292 -0.0128239 0.900482 -1.22437 0.0955373 
1.01579 -0.706646 0.0456166 0.945599 -1.00054 0.0828178 0.865036 -1.099 0.154653 
1.00232 -0.692272 0.264554 0.888321 -1.10073 0.234449 0.980056 -0.681495 0.182486 
0.925172 -0.737134 0.330925 1.05402 -0.836134 0.00607994 0.952932 -0.771639 0.139031 
0.985781 -0.846401 0.125273 0.949991 -0.778298 0.218011 0.995081 -0.898084 0.0799651 
0.926589 -0.874385 0.0875041 0.0909179 -1.41341 -0.252724 0.332873 -1.35487 -0.209096 
0.437484 -1.40919 -0.397634 0.0351695 -1.34798 0.325842 0.22766 -1.3233 0.481081 
0.103296 -1.40799 0.17283 0.21346 -1.34701 -0.387324 0.551465 -1.32955 -0.345051 
0.140854 -1.35146 -0.35361 0.504032 -1.3267 0.467888 0.281524 -1.28442 0.514137 
0.170373 -1.3494 0.368364 0.25651 -1.41179 0.295969 0.109874 -1.35769 -0.0054853 
0.314174 -1.34176 -0.129963 0.0943035 -1.35295 -0.286646 0.509917 -1.35351 0.310403 
0.359968 -1.40768 -0.0263211 0.160405 -1.33406 0.22241 0.238056 -1.35019 0.105721 
0.257218 -1.29347 0.298637 0.391376 -1.28271 -0.273779 0.299612 -1.35197 0.0665979 
0.45974 -1.31574 0.168805 0.164224 -1.27216 0.167988 0.572186 -1.29366 0.405519 
0.902691 -1.29055 0.532972 0.558115 -1.34712 0.436551 0.293584 -1.28531 0.218354 
0.351284 -1.35076 0.156451 0.365855 -1.35232 0.0924869 0.527938 -1.29022 -0.186628 
0.551941 -1.33272 -0.237473 0.567384 -1.28991 0.211786 0.574253 -1.22154 0.527672 
0.703976 -1.29057 0.420653 0.785512 -1.33952 0.471774 0.459988 -1.35073 0.23142 
0.701173 -1.41468 0.141189 0.632528 -1.22765 -0.289938 0.671289 -1.36459 0.192911 
0.855274 -1.23986 -0.290197 0.593379 -1.20278 -0.189049 0.906641 -1.26069 0.310397 
0.77635 -1.28835 0.4266 0.473968 -1.24134 -0.0323378 0.652735 -1.28636 0.259511 
0.757941 -1.25865 -0.107333 0.579032 -1.24419 0.155977 0.920044 -1.20721 0.253731 
0.995464 -1.33559 0.132015 0.632933 -1.26621 0.108701 0.981635 -1.11227 0.34384 
0.740719 -1.29308 0.278534 0.933936 -1.04871 0.0292241 0.853499 -1.15757 -0.152423 
0.805594 -1.20259 -0.100978 0.846383 -1.21588 -0.0431099 0.880757 -1.29282 -0.00899607 
0.843793 -1.29729 0.191661 0.780197 -1.31082 0.181897 0.93722 -1.12994 0.00697201 
1.00853 -1.01092 0.118031 0.980666 -1.09439 0.0443444 0.985848 -1.13446 -0.0395832 
0.85473 -1.26381 0.134669 1.00006 -1.17519 0.344368 1.02131 -0.906821 0.168265 
0.909391 -1.03819 0.259465 0.835618 -1.18697 0.156671 0.996274 -1.26134 0.212955 
0.893823 -1.15789 0.191941 1.08196 -1.26503 0.171702 0.940646 -1.20641 0.155725 
1.04682 -0.96824 0.0403166 0.975052 -1.00568 0.24182 0.893828 -1.03033 0.146193 
0.959133 -1.14545 0.224204 0.300109 -1.4153 -0.358484 0.208356 -1.38816 -0.328613 
0.032202 -1.4135 -0.0267896 0.480977 -1.27759 0.531258 0.0339612 -1.41171 0.19045 
0.111015 -1.33639 -0.0917893 0.346794 -1.30795 -0.394476 0.0369032 -1.36719 0.0258065 
0.0514965 -1.32146 0.533198 0.362153 -1.40635 0.19708 0.158957 -1.41314 0.439445 
0.332485 -1.33108 0.532468 0.0921727 -1.38716 0.239582 0.357963 -1.34964 -0.27024 
0.246617 -1.36545 -0.125326 0.266536 -1.41429 -0.201392 0.135108 -1.34116 0.155873 
0.352306 -1.29415 0.483624 0.0921231 -1.35259 -0.201104 1.00142 -1.41418 0.46811 
0.243994 -1.40735 0.205524 0.244989 -1.34512 -0.0590024 0.427458 -1.35509 -0.270602 
0.174179 -1.34118 0.0141464 0.598646 -1.41374 0.210126 0.48395 -1.41308 0.141025 
0.501163 -1.28229 0.332405 0.293029 -1.35452 0.326428 0.206588 -1.35686 0.166185 
0.336999 -1.35178 0.277229 0.819637 -1.4127 -0.214474 0.21186 -1.37787 0.262895 
0.393341 -1.34324 -0.0382453 0.191094 -1.31746 -0.102624 0.415412 -1.41526 -0.13424 
0.311365 -1.36596 -0.0631497 0.514413 -1.33204 0.386404 0.557475 -1.25134 0.35803 
0.325232 -1.35254 0.00202756 0.403647 -1.34491 0.0330739 0.825928 -1.3157 -0.161496 
0.4117 -1.35769 0.149681 0.372692 -1.35851 -0.161175 0.38919 -1.28393 0.162154 
0.426424 -1.28846 0.237851 0.391469 -1.33925 0.21269 0.624353 -1.21752 0.350987 
0.511726 -1.27192 0.148685 0.780514 -1.25919 -0.18566 1.04868 -1.36544 -0.126771 
0.365477 -1.29719 0.00186732 0.497311 -1.29861 -0.00600555 0.871556 -1.41464 -0.0905848 
0.682014 -1.34755 0.0177526 0.691809 -1.34321 0.252535 0.558539 -1.34288 0.258481 
0.619573 -1.27131 0.312181 1.09411 -1.36062 0.37018 0.695133 -1.35779 -0.048041 
1.07274 -1.11897 -0.0690923 0.802875 -1.27376 -0.0462848 0.91004 -1.24187 -0.0429234 
0.748507 -1.34936 -0.0158432 0.837129 -1.32431 0.0397352 0.918097 -1.35177 -0.0211832 
1.01774 -1.16232 0.405955 0.745296 -1.33847 0.113821 0.856602 -1.37602 0.283592 
0.732187 -1.22673 -0.0280243 0.958815 -1.28094 0.0772054 1.04916 -1.24148 0.056225 
0.974286 -1.22417 0.0319798 0.88346 -1.29002 0.0771066 0.819391 -1.31478 0.130715 
0.763534 -1.29173 0.0133797 0.996372 -1.25541 0.138949 0.921072 -1.32657 0.115192 
1.0179 -0.762097 0.224839 0.990725 -1.22715 -0.0370248 1.03555 -1.31644 0.190149 
0.949533 -1.2835 0.00371537 0.947426 -1.15725 0.087607 0.92713 -1.09377 0.381445 
0.0341676 -1.38629 -0.222575 0.0317357 -1.4142 -0.163185 0.0354906 -1.41021 0.468506 
0.0748662 -1.41423 0.30451 0.089865 -1.37996 0.528368 0.106108 -1.41552 0.473159 
0.076926 -1.40854 -0.33847 0.168771 -1.4021 -0.394962 0.389578 -1.36277 -0.403687 
0.0336212 -1.41208 -0.285273 0.0635753 -1.41294 0.0713598 0.281414 -1.4091 0.467093 
0.035147 -1.41055 0.357905 0.242851 -1.4087 0.366299 0.154044 -1.41182 0.531967 
0.330581 -1.35357 -0.335803 0.142654 -1.41429 -0.330513 0.152095 -1.41471 -0.268848 
0.647058 -1.41013 -0.316963 0.434076 -1.41293 -0.235988 0.128081 -1.41367 0.0772836 
0.1259 -1.36038 0.416279 0.402264 -1.33282 0.529311 0.110013 -1.3461 0.325423 
0.512136 -1.4062 0.399899 0.18923 -1.38275 0.0688005 0.325046 -1.40785 -0.164961 
0.317502 -1.41419 0.0968974 0.229054 -1.41107 -0.0768344 0.388493 -1.34471 0.459373 
0.339562 -1.32419 0.412112 0.305729 -1.40986 0.246587 0.729031 -1.34819 0.526213 
0.225618 -1.35113 0.323662 0.445546 -1.35108 0.344859 0.484193 -1.34692 -0.223687 
0.417159 -1.3592 -0.20498 0.0723225 -1.35051 0.102448 0.470624 -1.40707 -0.174955 
0.270948 -1.35405 0.265556 0.293342 -1.35175 0.136825 0.451157 -1.3457 0.432001 
0.377682 -1.33662 -0.10296 0.483734 -1.41043 0.0446901 0.687605 -1.27829 -0.349328 
0.597719 -1.29587 -0.260509 0.59001 -1.41474 0.0612715 0.562834 -1.28608 0.484938 
0.65862 -1.411 0.239129 0.585503 -1.35577 -0.288923 0.476725 -1.41397 0.208443 
0.712958 -1.35204 0.385951 1.04471 -1.28545 -0.196847 0.520078 -1.28121 -0.066258 
0.458645 -1.3469 -0.0704794 0.563437 -1.33691 0.0132204 0.503415 -1.34099 0.0476547 
0.572314 -1.319 0.338452 0.609613 -1.2827 0.535688 0.939627 -1.23393 0.531243 
[...]
POINT_DATA 1274
FIELD FieldData 10
VELOCITY 3 1274 double
-0.40014807134 0.06390212789 -0.0031739716514 -0.24737205687 0.089078104811 -0.13278472248 -0.15844553599 0.040282570142 -0.021458265956 
-0.38089702191 0.076357538175 0.056184314912 -1.4261212534 -0.51862840435 -0.095593322984 -1.0856345569 0.37869534059 -0.32369959877 
-0.20230111859 0.04519764845 0.069300974867 -0.48350328453 0.21329281353 0.28575189071 -1.4917215864 -0.72755322753 -0.089873519517 
-0.94867784313 -0.25837730017 -0.52198610322 -0.64260723471 -0.073998702266 0.20269774352 -0.47636185861 0.16934419425 0.42396687235 
-0.12623954507 -1.0280136563 -0.41984690022 0.35041661959 -4.5109227883 -0.085161457284 -0.77826847274 -0.51082734819 -0.26026953439 
-0.23587108559 -0.4340384705 -0.16407397394 -0.81411173264 -0.90996389445 -0.4490874889 0.38552951706 -4.3184111533 0.16993752057 
-1.4075548492 -1.6186107144 -0.66803654983 -0.33788165837 0.083733477079 -0.51693587164 -0.90483500496 -1.469725097 -0.7980139505 
-0.42558489024 -0.33025484572 0.036994309181 -1.1679328452 -3.6749834864 -0.63628108499 -0.31297523079 -0.32515307807 -0.079836763301 
0.22795777704 -4.3591772723 -0.23648277033 -1.2847000351 -0.17841946906 -0.068603255502 -0.0040553289588 -4.689591983 0.093725266548 
0.92264820556 -4.2113141085 0.00353693486 0.48654251768 -1.9906862599 -0.91848615099 0.52760287991 -2.8170653127 -0.81984770655 
0.19494318079 -4.2036124854 -0.16053373495 -1.5870532436 -1.8350363796 -0.69467228975 -0.92768853876 -3.6958994249 0.74020861583 
0.17764489043 -4.7083032631 -0.48764394494 0.25739640974 -5.1501639607 -0.19871047105 0.15580101921 -4.1377985952 0.40855215963 
-0.49292502114 -1.0834111637 -0.17327794144 0.17700893428 -4.9244205811 0.17952682406 -1.0840726214 -1.0092901497 -1.0142733676 
1.0213521618 -4.2570000983 0.073719594358 0.11862898838 -4.794973815 -0.20989534437 0.20895054356 -3.5199135368 -0.35503719932 
0.40136924977 -4.4121419997 0.093057820788 0.33472347506 -4.4696014677 -0.0044041049303 0.75950425939 -4.3382630583 -0.0023063022027 
0.23186666686 -4.6537421142 -0.3488692616 0.91157916429 -4.3546888576 0.045456537294 1.0104181884 -4.3531349389 0.11050799712 
-0.33314287002 0.15017107214 -0.096468483273 -0.0080182752592 0.10344160099 -0.004544186888 -0.2196168046 0.044072667267 -0.096806730929 
0.0013213195098 0.05017605859 -0.018595230913 -0.14547227708 -0.018207605164 -0.034847738956 -0.21611462019 0.15325285651 -0.088282932637 
-0.25650650727 -0.063497800229 -0.11833549031 -0.7280762203 -0.28022696105 0.25312599553 -0.11332858007 0.10455388382 -0.20789636889 
-0.073600658114 -0.0026250967709 -0.0016604232864 -0.70836153768 0.20542354809 -0.40933666367 -0.37857891459 0.032627558193 0.059365689011 
-0.22413618955 0.14455706173 -0.13026632455 -0.29126973733 -0.10285338694 0.030887903156 -0.40929314737 0.030701154498 0.023576952644 
-0.28035200425 -0.062091720297 -0.096273006913 -0.082565963438 0.081958464325 -0.18566377876 -1.1151653367 -0.038115742805 -0.44770254031 
-0.30938863371 -0.024738467825 -0.17773232654 -0.24243237515 0.020852157132 0.30907096988 -0.2180811081 0.16445580687 -0.19301120309 
-0.39723876599 0.13634510631 0.045730856087 -0.50578878293 0.015702594342 -0.17139053328 -0.74753594325 -0.19631710256 -0.44507315131 
-0.34656653637 0.101370283 -0.16199063902 -0.0033558904123 -0.0024110576821 0.085478510946 -0.5112903517 0.33788497543 -0.060199032177 
-0.29581263871 0.035348218016 -0.11920270837 -0.49338071794 0.12482660565 -0.33891326296 -0.71034627147 -0.2863921543 -0.42128011276 
-1.2046528731 -0.33844687023 -0.089440564702 -1.2032170829 0.15288644457 -0.22013128442 -1.5622098484 -0.41623104773 -0.31346258015 
-0.4676378134 0.12679359782 0.16187629681 -0.27200781898 0.060016292167 0.16880095329 -0.37423161048 -0.10659360771 0.047497620306 
-0.3372757154 -0.12385210864 -0.013694267035 -0.27877003858 -0.37932734894 -0.0083284073957 -1.2568730583 -0.49962558627 -0.057819421429 
-0.4151191615 0.34883642295 -0.51835282281 0.24086266434 -0.026751012887 -0.18095796876 -0.40269089324 0.14542188531 0.050216513944 
-0.48900767938 -0.1298648407 -0.64535248918 -0.035230222568 -0.27015694994 0.2034975548 -0.59847215617 -0.74399161918 0.15633070554 
-1.0239877795 -0.8440824718 -0.33851392718 0.59633376421 -4.7451792234 -0.17399109731 -0.8674710096 -1.2849817315 -0.42762455293 
-1.1088455383 -0.72125644632 -0.043852253718 0.074807281876 -0.48351093825 -0.25982159331 -1.3273189029 -0.23449429414 -0.31533384859 
-1.0143279738 -0.79234081275 0.53021606541 -0.63280323091 -1.4905608274 1.919592774 -0.60946337191 0.021577371225 -0.20629334004 
-0.19812565589 -1.1737818214 0.048360974792 -1.0476486851 -0.38226103632 -0.16988243051 -0.98059655332 -0.68544267347 -0.42693994412 
-0.37764090382 0.17678063246 0.1524851152 -0.080168436182 -1.2475013838 -0.44556405097 -0.27322161625 -2.0798516528 -0.58239131178 
-0.5393918257 -2.7930729168 1.0897816334 -1.2650744881 -3.4742332494 0.67544167272 -0.62651130392 -1.0307833814 1.5095533909 
-0.41032949485 -3.3043920854 -1.3549486356 -0.91369113725 -0.97943766765 0.061948170323 -1.7094257879 -0.89110480144 0.33786647878 
-0.20964320511 -3.4237186708 1.3282609208 0.24252439 -4.766692975 -0.047781800278 -0.89213354167 -1.6860602974 1.2277743009 
-1.5314916695 -2.2527969167 0.55614188189 -1.4571853678 -2.1093218015 0.9246941362 -1.2837757475 -1.3861580086 -0.70560939015 
0.1467872338 -5.0368577903 0.013628722022 0.12591014226 -3.6662456841 -0.58790168853 0.20817150654 -1.3669781576 -0.13407275808 
0.2225517967 -4.2080295267 -0.090735085052 0.16415495441 -5.0326611084 -0.11504528857 -0.94644677904 -2.3170531759 0.5896236299 
0.8688673741 -4.4781717383 0.051289149926 -0.51139593232 -2.3224896953 0.17492716888 0.21483020274 -4.078088336 0.015265995889 
0.21568215999 -4.2113755048 0.30938790247 0.1878695717 -4.6843444743 -0.18869081418 0.30582843096 -4.5742416913 -0.018435475638 
0.35523322355 -4.8202614686 -0.10430995528 0.20530658822 -4.6073818132 -0.066907970998 0.47929680533 -4.8355887706 -0.090385667419 
0.36998352641 -4.7556995003 -0.20317448633 -0.074830434456 -0.00010463298148 0.15747789038 -0.34993584928 0.010094234405 -0.062137373172 
-0.043830902134 8.6839351188e-06 0.0026704341599 -0.01647454815 -0.043067868318 -0.092716196743 -0.35039031931 -0.0086918753018 0.066183462651 
-0.040773135307 -0.00059381794444 -0.09285307802 -0.10290293339 0.13441053575 -0.13753936662 -0.23957432003 -0.050709267583 -0.027713087835 
-0.23061534866 -0.022208957852 -0.10275072743 -0.16435697217 -0.022025312815 -0.011773637006 -0.2792860704 0.068311756034 0.060454088307 
-0.033352986671 0.020480719388 0.0073921909074 -0.099004651102 -0.00010792696975 -0.010606678188 0.0032297267271 0.006817061925 -0.12177598867 
-0.18562589018 0.087556291522 -0.03744273236 -0.22918176294 -0.19980794657 -0.21416209996 -0.2030044978 0.030049912376 0.051236001584 
-0.047511289797 -0.0017230881624 -0.052774526036 -0.18699597864 -0.018356367324 0.007152775622 -0.13836787355 0.093541879183 0.016765408859 
-0.27790631892 0.052675158563 -0.1675607741 -0.4280862812 -0.037864604991 -0.086983266709 -0.11792941338 0.025735890331 -0.12083251049 
-0.77062509012 -0.45523649004 -0.30308525324 -0.2506785637 0.049881505397 0.14521451503 -0.44025887498 0.18868149462 0.15675604894 
-0.077190387102 0.058277453044 -0.0055065403128 -0.17554644386 0.0021590954364 -0.045770801348 -0.5671241084 -0.087967124723 0.028099543129 
-0.16891649659 0.026272645451 0.024189428719 -0.15043846665 -0.03425974199 -0.042098502249 -0.59370606371 0.091899008566 -0.33806280338 
-0.24900749676 0.0457774429 -0.13608374848 -0.49451024604 -0.066770754099 0.0076258314217 -0.40915101466 -0.093315955753 -6.0981380139e-05 
-0.45250369017 0.076540174444 -0.057563789023 -0.26991287022 -0.062804195902 0.019419894859 -0.5784966053 -0.14400186754 0.29253785677 
-0.21593429524 -6.935399397e-08 -0.20569448613 0.097103551047 0.49847265716 -0.43190088976 -0.7609648571 0.1287525165 0.078327671505 
0.25705099522 0.29695089199 -0.06179565942 -1.5125790728 -0.030924945358 -0.84827300299 -0.37851199252 0.016683944198 -0.044441530853 
-0.14541754846 -0.82590317813 0.39824023577 -0.26877342696 0.17023598977 -0.52740454641 -0.63126269889 0.10036310922 0.089603335183 
-0.53953837374 -0.087722435693 -0.37503224001 -0.9529234626 -0.11796596882 -0.18005466 -0.079319529158 -0.51200870132 -0.52596534668 
0.77375666048 -1.5993356259 -0.64562984199 -0.97367584449 -0.12538031327 -0.20204931016 0.020267418387 -2.4555682159 1.0349331866 
-0.52537302762 0.1424150457 0.21794248501 0.60335946821 -1.9939835306 -0.86680792693 -1.3532933475 -1.6504463322 -1.6096435423 
-0.46047609676 -0.098288339565 -0.50816401099 -0.21967419732 -0.74060212914 -0.2759734611 -0.88188900746 -0.75235180962 -0.18066818836 
-1.0713273274 -1.8651596078 -0.15507715916 -0.58260051982 -0.53208813276 -0.067449667069 -0.23426043499 -1.7028977797 -0.32949505467 
0.045456920422 -4.687328879 0.28268810859 0.037463118002 -2.2692392633 0.21449304113 -0.60802972514 -2.8991598312 -0.69303274935 
-0.10591121252 -0.32738777754 0.094816553902 0.47441941305 -0.31626338292 0.58759733057 0.41548860719 -4.9326549061 -0.067006800774 
0.103750418 -2.6464435733 0.6968579091 -0.25899364599 -0.89030812498 -0.32503320618 -0.12199637438 -1.0268644008 -0.19052616484 
0.0062114941314 -2.0171529993 -0.25618855271 0.5779596424 -0.85208352487 -0.0044268036683 0.018700574068 -2.3488385613 0.3653897254 
0.048839783949 -4.2151783881 -0.33648609922 0.075653311766 -5.1377307157 0.21391703911 -0.14382673019 -2.7526819362 -0.33715592039 
0.13319299499 -3.3181577474 0.56485484042 -0.0043865363834 0.00020186001351 0.010721083558 -0.069862082896 0.13683579067 0.01827217136 
0.0021596545801 0.0013394570854 -0.060674134302 -0.25975072333 0.031298450596 -0.0071001414533 -0.0048187968941 -0.0011200768643 0.02210284772 
-0.13701700659 0.12000853061 -0.060847045293 -0.013757656103 0.032101705112 0.00038313671016 0.0012180705847 0.036081571787 -0.050455393989 
-0.39231728632 -0.12373896514 9.5461727938e-06 -0.083776616737 0.021559160559 -0.001511224697 -0.078416509354 0.00020142245434 0.1039549605 
-0.19185196524 -0.075670441479 -0.00060809908215 -0.0070228797255 -0.058440550203 -0.069410602466 -0.29651956872 -0.050640867821 -0.051595391141 
-0.20029987141 0.11458207005 -0.016610240902 -0.17438273137 -0.00046007333169 0.021517946978 -0.054404391519 0.001835637411 -0.069674915945 
-0.39008455151 -0.027183219241 -0.044525815993 -0.055883762328 0.15759603676 -0.11530702529 0.08360467126 -8.3528786399e-06 0.26835798305 
-0.052983373801 -0.00022219968513 -0.017171910812 -0.21052351189 0.24785480159 -0.046001735448 -0.29238455061 -0.0599810266 -0.032112085345 
0.056459755447 0.068747456792 -0.1526316209 -0.14185209637 -0.0022626819826 -0.011015666122 -0.046801970566 -0.0084910089096 -0.01900569301 
-0.38027507922 0.045698211374 0.051223240225 -0.057395100471 -0.008020187498 -0.14667804172 -0.13478922817 -0.15132940898 -0.028248247744 
-0.10603317631 0.011655855722 -0.038741490382 -0.14865085584 9.7777682467e-08 -0.2811699146 -0.10520791264 0.0055043593476 -0.036071799285 
-0.13244545762 0.028439135841 -0.12344357405 -0.34089157822 -0.29277541883 -0.54886101076 -0.2383657918 0.00074119454311 -0.044480546568 
-0.11305345161 0.027845424444 -0.056587717467 -0.45260725835 0.018793355982 0.10035006156 -0.43048704963 0.11869340575 0.073792002254 
-0.21820622127 -0.041875558288 -0.20028519409 -0.25330189871 0.024804584693 -0.10415353076 -0.26788266234 0.15279416441 -0.50184534688 
-0.13756765905 0.059529986294 0.2479501026 -0.23584758228 0.05890723472 -0.12631321053 -0.50538851738 -0.087702263354 -0.15168464719 
-0.42651049228 0.12459102569 0.12703369527 -0.47866423271 0.16470339583 0.12500025139 -0.56292516723 0.23997387515 0.17205339098 
-0.64785925866 -0.34426303939 -0.067182544006 -0.32553283773 0.24744574395 -0.19273601753 0.084857510936 0.18668162067 -0.50629029802 
-0.57747689528 -0.42858588263 0.12460458951 -0.70440489891 -0.21940870164 -0.2608694135 -0.37617206778 -0.12857726086 -0.61031577454 
-0.50976371828 -0.43166285971 0.26178025096 -0.3599183069 -0.1164049402 0.10508079354 -0.12590737689 -0.006170792327 0.12092385655 
-0.44312212852 0.22043344479 0.17693733595 0.004363098106 0.0022482037935 0.034721207745 -0.32578789454 0.011075736308 -0.1604345452 
0.65497132445 -1.4768781756 -1.5665523014 -0.13894447681 -0.94853805159 -0.76607200576 -0.36894018732 -1.122705994 -0.31737008025 
-0.26538089523 0.12874128371 -0.2866218427 -0.56923724914 -0.3294891199 -0.33594285476 -0.13437323416 -0.23902720316 -0.70490363832 
0.42436247902 -0.49888104352 0.39975491582 -0.47307483921 -0.12740819294 0.0098042702014 -0.041785940252 -0.23440066904 -0.17304300165 
-1.0613884592 -0.84946049643 -0.55635987322 0.094266927451 -1.3933255319 -0.36353099811 0.24092348808 -0.86298710574 -0.2416261949 
0.026634860011 -1.2382122971 -0.18693813186 0.28708790585 -1.404194734 -0.11024424371 -0.42426404838 -0.091146911967 -0.22089046292 
-0.4188401217 0.073719466791 -0.61529383867 0.50271302026 -1.9239162259 -0.3643210246 0.31030634594 -1.1992691272 0.10292102935 
0.16727853504 -4.4087869119 0.0019920785267 -0.63033120671 -0.2948368162 -0.28819160593 0.33331543986 -0.70654743115 -0.24753124285 
-0.22587089738 -1.0154542126 -0.33307142065 -0.30028699935 -1.8283250813 -0.21481343151 0.3153824123 -2.5192984697 1.5949074206 
0.0024549281988 -0.059011555371 0.05266688397 0.022408144438 0.00039730465663 0.082296789259 -0.00060540432788 7.0853168527e-05 -0.0035577018233 
0.014813895968 0.0023023055002 0.018472054838 -0.056813803999 0.09633629302 0.00014935659192 -0.11576988738 -8.7053987609e-05 0.04510587699 
-0.023110128542 -0.037163421017 0.0096001562251 -0.0021175768209 0.02166395286 -0.0015152374853 -0.02103227242 0.022419550147 -0.0002329715023 
-0.00029555702021 0.00016925556916 0.028214039481 -0.078539761748 0.00036657945905 -0.041017582832 -0.18788119481 -0.00087460484265 0.039947923611 
-0.0011529594753 0.00044712200911 -0.0073238152708 -0.030394203798 0.00090559714338 0.0040846340732 -0.053372370092 6.852386235e-12 -0.00016522103571 
-0.16930100533 -0.058777134654 -0.10780421761 -0.018142450418 0.00054199509448 -0.015976064117 -0.11653209479 0.001816962414 0.0027535749155 
-0.041853362383 0.0019508246914 -0.014685477558 -0.078904772189 0.003225002713 0.0083903949021 -0.065573319611 0.0020290110093 -0.16298258858 
-0.046175479871 0.037312027238 0.00070685769625 -0.19637758785 0.02150093181 -0.00017498223818 -0.014353121855 -0.019254309338 -0.026435953238 
-0.057849865555 -0.00052860799409 0.06267795351 -0.03997894334 0.09303358353 -0.10933811607 -0.14545677154 -0.036117028492 -0.019583929498 
-0.095227385036 0.00023884777943 -0.095456740393 -0.15247875627 -0.0011710028947 -0.11144497448 -0.30263498081 -0.0075559264787 0.041370824681 
-0.24675469604 0.18398994001 -0.018187651898 -0.071194471455 0.0016787286327 0.014603197119 -0.13359559233 -0.046272919337 -0.016284504702 
-0.070766550107 0.010788176807 -0.044269234168 -0.19007399843 0.051692183703 0.078087962591 -0.22534458888 -0.044337482701 -0.10874922923 
-0.2496032172 0.029056623332 -0.13134465889 -0.03432301214 -0.023907804997 -0.00034659100876 -0.14181125509 0.0022047452622 0.049725107708 
-0.10342691741 0.0123980288 -0.07223544688 -0.093564290527 -0.01560749457 -0.061141310351 -0.24522827658 0.06094781947 0.061837391826 
-0.25125570152 0.067153849751 -0.091957335541 -0.25434189536 -0.0019667499248 -0.14519321761 -0.40695899208 0.18183845871 -0.091248161793 
-0.33271266777 0.20167121593 -0.098999838385 0.063523732033 -3.0319300768e-12 -0.10222095171 -0.29187699836 0.10334624965 0.077114859995 
-0.2126576722 0.011591296473 0.15118564649 -0.12974176365 0.057635664499 -0.062839537553 -0.15981005233 0.00053385592292 0.098050304962 
-0.33808679374 -0.010857482735 0.12840608618 0.12783391079 -0.18120722225 -0.55726299918 -0.22490785947 -0.19681302329 -0.10246558711 
-0.3243690939 0.13484110716 -0.08442676054 -0.46689762865 0.18839282356 -0.092390478558 -0.47224206281 0.066431026156 -0.069553466065 
-0.29849959057 0.087931575911 0.1919533585 -0.19724555428 0.025837269356 -0.00049285521464 0.073452369732 -0.078397912736 -0.035399915768 
0.019141021167 0.024130451887 0.34498445791 0.014626885751 -0.85721700184 0.080096271565 -0.88869385949 -0.16690178973 -0.41558706982 
-0.70433698244 0.15098746695 -0.1914103656 -0.40774034022 0.30783410163 -0.32904856801 -0.60679701228 -0.22662028217 0.28580606178 
-0.85825739802 -0.26677922949 0.21939078705 -0.18344019021 0.011653077348 -0.090317847397 -0.40765011408 0.099140575353 9.3980154199e-05 
-0.27089846092 0.010341224763 0.086063689629 -0.33856440002 0.090147519076 0.082298134433 -0.7722169169 -0.2235798124 0.084141749261 
-0.87690053633 -0.65044902611 -0.88212963746 0.13516460784 0.11209500272 -0.88883844249 -0.017508145677 0.080655836579 -0.18838606325 
0.13099570183 -0.51190528745 -0.52805528751 -0.42569516749 -1.0075119369 -0.35445666351 -0.55966731266 -0.23364324237 -0.04076249968 
-0.34602878824 -0.060205706826 0.034855859538 0.23044247559 -1.0354877689 -0.0025479164274 -0.33941611864 0.0019653597851 -0.074133309455 
-0.55143391644 -0.033176172117 -0.16379748344 -0.51553992071 -0.18166946131 0.50317892216 0.23057047582 -0.41508464426 0.60708424253 
-0.16244893971 0.083459771209 -0.53434966747 -0.19788195041 -0.060383221284 -0.57938614001 -0.16174974252 -0.20837114677 0.037898562422 
-0.11693659493 -4.6793290983 0.37486807481 -0.24450250664 -0.39593628332 0.12352289353 -0.68972834507 -0.76235284006 -0.039133204158 
0.00031295947269 7.009497347e-07 -0.06812645565 -0.00015642491009 -0.038709907106 -0.014782317673 -0.0066758197459 0.01036501811 0.0026660583339 
-0.00078873280597 0.00092609993394 0.017156586678 -0.11201694383 0.00018625737459 0.0020327859502 -0.1244691892 0.00068901783311 -0.019333905041 
-0.00088092395273 0.0002234617333 0.0043258839556 -0.00039529575873 -0.0050063043774 3.0389599317e-05 -0.080352900366 -2.1930888355e-12 0.0039729820394 
-0.049881915968 -0.00032208530752 -0.016924315651 0.000717400272 0.00060477767246 0.029219892643 -0.11329669296 0.00021846592324 -0.00094613218976 
-0.018960529409 0.0011859629449 -0.076061153776 0.027026957501 0.00070408291161 0.012297244975 -0.11078991258 0.00043219760163 -0.021906780688 
0.00013546535232 -0.00018827168403 -0.0012523296506 -0.19379448734 0.10425430055 0.0023232195655 -0.13104205959 0.0021314682779 0.031220301941 
-0.0016928140077 -0.082779527713 -0.27508182693 -0.17139346123 0.0033795602607 0.042353185139 -0.013088118177 -0.00012906715589 0.12128577362 
-0.05937111015 0.00032957075243 -0.077658274832 -0.003590552808 0.00016663919507 -0.037797673507 -0.057672391374 3.1296893539e-07 -0.0020788585 
-0.086047242411 0.12332152886 0.040127022986 -0.021588519782 1.9141482069e-06 -0.11016065716 -0.19529786956 -0.065706649339 0.073900579357 
-0.1227981156 0.018655022765 0.046280454442 -0.094950233165 0.074562292066 -0.039405414255 -0.23088772037 0.043284686019 0.00065818137687 
-0.25997437404 0.12152296578 0.007574488344 -0.031093624921 9.3421392155e-06 0.0053041676419 0.021449835923 -0.00042049293534 -0.01301630321 
-0.16528657973 0.069643711603 0.078120833378 -0.20580632761 0.19745270522 -0.19007450496 -0.07945240122 -0.0014873352026 0.026698935428 
-0.19432946434 0.0015885516573 0.039530226858 -0.18214417038 -0.0079051830646 -0.0052570315694 -0.11033842981 0.034965969513 0.014967446462 
-0.09023911682 -0.091262773384 -0.11781057051 -0.1247161802 0.00021178596286 -0.049575375836 -0.014967783592 -0.00040952888616 0.0046585521055 
0.018792486191 0.0036391147484 -0.25377523644 -0.26622318782 0.13573132996 -0.15340849679 -0.13093897441 0.0023649473924 0.062920985106 
-0.030427330413 -0.022092740452 0.0038851332003 -0.26132760506 0.080374157281 -0.13882333894 -0.31150900034 0.30557112817 0.20170262763 
-0.0360958612 0.072064133174 -0.008922028085 0.27262007278 1.4199092071e-08 0.13080913209 -0.075031572025 0.095140364284 -0.18208747598 