# vtk DataFile Version 4.1
vtk output
ASCII
DATASET UNSTRUCTURED_GRID
POINTS 1274 float
0.27479 -1.29381 -0.0533103 0.274251 -1.30222 0.0958627 0.316254 -1.28794 0.302039 
0.157929 -1.31648 -0.210819 0.29774 -1.25602 0.140259 0.413554 -1.23402 -0.0697018 
0.382372 -1.29118 0.321821 0.482547 -1.22716 0.475941 0.512063 -1.23572 -0.00165268 
0.63582 -1.25208 -0.00523121 0.539735 -1.34691 0.189409 0.64093 -1.22119 0.429149 
0.851993 -1.27164 -0.151355 0.842589 -1.25331 -0.0814998 0.656224 -1.29217 0.157709 
0.755584 -1.27564 0.263482 0.697203 -1.26481 0.216134 0.795153 -1.2064 -0.041172 
0.641921 -1.20069 -0.0597801 0.672391 -1.34639 0.00772115 0.708173 -1.18948 -0.0841826 
0.689295 -1.30525 0.27423 0.474762 -1.22515 0.311305 0.61581 -1.27109 0.225373 
0.923602 -1.23239 -0.0844776 0.385801 -1.23597 0.127825 0.658403 -1.20195 0.359113 
0.845275 -1.17978 -0.0861249 0.923863 -1.31239 -0.00202495 0.821584 -1.22841 0.0401388 
0.966306 -1.197 0.000367316 0.655679 -1.2292 0.0481582 0.565617 -1.21169 0.377006 
1.08276 -1.22016 -0.278113 1.04231 -1.23912 -0.144971 0.549083 -1.20272 0.293366 
0.791319 -1.2785 -0.0116511 0.634694 -1.27041 0.286625 0.447125 -1.21567 0.0931229 
0.923767 -1.18363 0.056173 0.856283 -1.21644 -0.199476 0.794016 -1.22493 0.163598 
0.838535 -1.21111 0.11096 0.748927 -1.21519 0.220519 0.902907 -1.23815 -0.0160017 
0.958719 -1.22135 -0.251017 0.889656 -1.24972 0.290199 0.890783 -1.21491 0.228861 
0.454534 -1.29748 -0.304466 0.167765 -1.33178 0.280822 0.144196 -1.35827 -0.066072 
0.0370367 -1.33344 0.173272 0.287302 -1.34252 0.471919 0.255915 -1.33831 0.384681 
0.240727 -1.31343 0.165328 0.380136 -1.35337 0.285522 0.151622 -1.34827 -0.274345 
0.359392 -1.41001 0.0556764 0.61218 -1.2889 -0.213613 0.217949 -1.35338 -0.222977 
0.399581 -1.34726 -0.151439 0.371772 -1.35402 0.403726 0.398854 -1.29176 0.392598 
0.278354 -1.34817 0.208845 0.214211 -1.33755 0.00463193 0.48495 -1.26043 -0.185597 
0.414357 -1.36075 -0.0241728 0.584816 -1.34523 0.300774 0.433011 -1.28227 -0.142206 
0.305455 -1.2857 0.238137 0.552551 -1.36049 -0.0203853 0.393237 -1.2706 0.198644 
0.333868 -1.29934 0.0611359 0.333674 -1.26284 0.446185 0.513297 -1.23092 -0.0783128 
0.623812 -1.4128 0.0998676 0.534005 -1.24696 -0.241862 0.219286 -1.27625 -0.217844 
0.569802 -1.35645 0.0402034 0.540829 -1.30146 -0.0342755 0.380023 -1.23283 0.252928 
0.453756 -1.28378 0.445195 0.580213 -1.33477 0.469872 0.447364 -1.27857 0.262669 
0.509852 -1.29481 0.295262 0.45223 -1.36097 0.112599 0.613744 -1.30244 -0.0469256 
0.637414 -1.22391 -0.209532 0.97315 -1.28023 -0.282443 0.570404 -1.28642 0.173243 
0.475284 -1.28513 -0.247382 0.764549 -1.28867 0.340989 0.64658 -1.32585 0.219204 
0.583316 -1.2331 -0.0503411 0.983767 -1.25861 -0.0299733 0.741981 -1.25189 -0.0574948 
0.685101 -1.29087 0.0499087 0.875379 -1.34911 0.161188 0.602355 -1.25522 0.0824384 
0.778786 -1.23202 0.386088 0.793686 -1.2424 0.464452 0.540737 -1.26118 0.241645 
0.824984 -1.35828 0.207233 0.620602 -1.22344 -0.142502 0.686974 -1.2313 -0.0321069 
0.554089 -1.23796 0.12726 0.7326 -1.23735 0.0211615 0.806716 -1.29871 0.179014 
0.827205 -1.2474 0.337569 0.680644 -1.26479 0.331339 0.810305 -1.22665 0.532537 
0.91823 -1.2269 -0.344175 0.770124 -1.30897 0.0484939 0.451161 -1.242 0.202347 
0.743081 -1.19847 0.446542 1.16629 -1.21869 0.0178479 0.63 -1.25949 0.533732 
0.733866 -1.22525 0.314788 0.708516 -1.24217 0.410009 0.579779 -1.23792 0.0187781 
0.956555 -1.28894 0.220975 1.11261 -1.24011 -0.180361 0.839523 -1.30408 0.0445952 
1.00377 -1.19032 -0.110778 0.909 -1.28946 0.0623266 0.613885 -1.23293 0.149226 
1.24755 -1.18513 0.45827 0.736871 -1.25347 0.162351 0.941509 -1.22356 0.18898 
0.953942 -1.20811 0.423697 1.20809 -1.2594 -0.18147 0.903967 -1.23194 0.0984573 
1.03716 -1.22358 -0.000524431 0.863654 -1.23249 0.172371 1.11702 -1.25404 -0.0104749 
0.965023 -1.26191 0.0348537 0.0867647 -1.41341 -0.246498 0.285931 -1.3607 -0.2131 
0.429845 -1.40919 -0.397639 0.0351687 -1.35976 0.314813 0.213936 -1.32095 0.482322 
0.0968657 -1.40799 0.157016 0.214966 -1.34261 -0.402017 0.500075 -1.31858 -0.348226 
0.0871205 -1.35984 -0.381445 0.49408 -1.34742 0.460537 0.251656 -1.27896 0.529061 
0.147382 -1.35424 0.378924 0.241286 -1.41179 0.297729 0.0968974 -1.35802 -0.0120162 
0.276394 -1.31935 -0.158618 0.0801381 -1.35885 -0.288898 0.47365 -1.35383 0.309799 
0.348772 -1.40768 -0.0294002 0.129735 -1.34357 0.230645 0.213483 -1.33458 0.0984114 
0.219856 -1.29523 0.291208 0.322626 -1.29146 -0.295255 0.271077 -1.34803 0.040441 
0.422694 -1.31884 0.168474 0.0863112 -1.29132 0.210326 0.51819 -1.2975 0.41863 
0.894408 -1.29885 0.533049 0.546029 -1.35439 0.420836 0.240888 -1.29418 0.228385 
0.318409 -1.35514 0.15694 0.319035 -1.35435 0.092578 0.376614 -1.28666 -0.231756 
0.519147 -1.33034 -0.242102 0.494932 -1.29342 0.2046 0.528436 -1.21992 0.527674 
0.648024 -1.28748 0.411337 0.777927 -1.34239 0.458401 0.426696 -1.34462 0.23128 
0.67723 -1.41468 0.136358 0.598423 -1.22119 -0.399396 0.602015 -1.3586 0.188967 
0.835731 -1.21648 -0.325887 0.39301 -1.29457 -0.299945 0.828141 -1.29947 0.283148 
0.759858 -1.2891 0.419725 0.338406 -1.28423 -0.173721 0.571711 -1.27595 0.294428 
0.669025 -1.26973 -0.166123 0.490867 -1.24814 0.147642 0.877576 -1.29169 0.2133 
0.97146 -1.38796 0.0882421 0.535577 -1.28028 0.0565322 0.99356 -1.25475 0.444921 
0.650824 -1.32961 0.339856 0.940299 -1.29512 -0.0662469 0.678064 -1.20554 -0.263954 
0.726236 -1.22805 -0.145207 0.791887 -1.30455 -0.0799644 0.819975 -1.3499 -0.0431168 
0.737834 -1.31514 0.180151 0.704358 -1.35383 0.139226 0.861217 -1.29829 -0.0256276 
1.00782 -1.24889 0.0920038 1.06376 -1.27254 0.0414312 0.912579 -1.24749 -0.147039 
0.785557 -1.28776 0.115724 1.10683 -1.27974 0.401086 1.00481 -1.24429 0.192703 
0.818435 -1.24166 0.229818 0.699297 -1.25696 0.110405 0.932447 -1.36014 0.217668 
0.855916 -1.28464 0.119978 1.19551 -1.35905 0.116044 0.947769 -1.35469 0.143239 
1.12241 -1.25702 -0.0926835 1.02672 -1.25861 0.279832 0.763963 -1.22266 0.095738 
0.991931 -1.34511 0.195909 0.297591 -1.4153 -0.35876 0.199505 -1.37217 -0.327204 
0.032203 -1.4135 -0.0344384 0.44123 -1.28047 0.527977 0.0339857 -1.41171 0.191252 
0.0876274 -1.32291 -0.107911 0.34294 -1.30454 -0.394474 0.0369055 -1.36227 0.0212586 
0.0326479 -1.3382 0.495985 0.34681 -1.40639 0.198575 0.152121 -1.41314 0.444394 
0.323918 -1.34676 0.532455 0.0882476 -1.39527 0.227113 0.326941 -1.35871 -0.265161 
0.218346 -1.35019 -0.129864 0.248664 -1.41429 -0.200173 0.12576 -1.33795 0.151946 
0.313182 -1.29055 0.503005 0.0915282 -1.33746 -0.219662 1.00711 -1.41418 0.47154 
0.234549 -1.40735 0.202682 0.220006 -1.34162 -0.0610231 0.403506 -1.35851 -0.282313 
0.151552 -1.32352 -0.00156639 0.582538 -1.41374 0.214938 0.469407 -1.4131 0.144793 
0.453179 -1.2886 0.339595 0.274696 -1.35675 0.322532 0.195202 -1.36252 0.158047 
0.312249 -1.34568 0.270106 0.799743 -1.4127 -0.22818 0.190623 -1.38771 0.264731 
0.356027 -1.34189 -0.0614489 0.161624 -1.3055 -0.121478 0.394523 -1.41526 -0.14167 
0.292929 -1.35411 -0.0872961 0.466388 -1.3397 0.396647 0.484428 -1.2527 0.38979 
0.298099 -1.35987 -0.0221277 0.359777 -1.3496 0.0160496 0.799929 -1.29574 -0.211621 
0.379233 -1.36165 0.155417 0.336178 -1.3453 -0.179413 0.354148 -1.29981 0.133659 
0.378878 -1.29394 0.255822 0.348138 -1.33263 0.21135 0.530819 -1.23291 0.431774 
0.449175 -1.29484 0.112075 0.734176 -1.25693 -0.211149 1.05832 -1.36664 -0.148157 
0.311511 -1.30432 0.00374052 0.444898 -1.30484 -0.0194491 0.833738 -1.41477 -0.137555 
0.613223 -1.36203 -0.0105506 0.650815 -1.36185 0.273579 0.512524 -1.34529 0.250027 
0.532848 -1.25872 0.344056 1.14675 -1.36882 0.38059 0.62777 -1.36752 -0.0725869 
1.12555 -1.25176 -0.243793 0.725085 -1.29404 -0.112736 0.854621 -1.32292 -0.107006 
0.686921 -1.36338 -0.0516152 0.74752 -1.34114 -0.00693223 0.898209 -1.35442 -0.0552425 
1.04858 -1.23433 0.468382 0.636211 -1.31513 0.092834 0.840724 -1.41501 0.253896 
0.653724 -1.25558 -0.0933339 0.895599 -1.35378 0.0891242 1.09915 -1.31846 0.0033354 
1.01028 -1.3106 0.00864035 0.811366 -1.36843 0.0464996 0.754183 -1.33936 0.101057 
0.696393 -1.29675 -0.0331439 1.05094 -1.35046 0.15681 0.855066 -1.41217 0.0902471 
1.14733 -1.2269 0.388674 0.993656 -1.28507 -0.111396 1.09865 -1.40835 0.17532 
0.969048 -1.36876 -0.0387961 0.972146 -1.3165 0.0851565 0.892902 -1.1991 0.468518 
0.0341703 -1.37754 -0.227431 0.0314937 -1.41421 -0.173021 0.0354907 -1.41021 0.467909 
0.0727656 -1.41424 0.30716 0.0851782 -1.37152 0.528368 0.0999637 -1.41553 0.479162 
0.0768999 -1.41064 -0.339093 0.166925 -1.39487 -0.394951 0.384277 -1.36047 -0.403686 
0.033625 -1.41208 -0.285769 0.0517973 -1.41294 0.0666849 0.265341 -1.4091 0.471042 
0.0355766 -1.41055 0.363431 0.240057 -1.4087 0.370214 0.144028 -1.41182 0.530274 
0.303079 -1.35424 -0.332223 0.142836 -1.41429 -0.331479 0.145839 -1.41471 -0.269149 
0.64053 -1.41013 -0.320405 0.424405 -1.41293 -0.237067 0.116331 -1.41367 0.0610183 
0.0978395 -1.34408 0.421789 0.392077 -1.33173 0.529312 0.109638 -1.35203 0.315134 
0.501706 -1.4062 0.400699 0.175112 -1.37137 0.0539214 0.310081 -1.40789 -0.168355 
0.292589 -1.41419 0.089735 0.209929 -1.40896 -0.0930971 0.356194 -1.34852 0.468901 
0.316576 -1.32195 0.415414 0.291862 -1.40986 0.249731 0.713624 -1.3504 0.518412 
0.207862 -1.3519 0.331139 0.412513 -1.34988 0.349593 0.453347 -1.34841 -0.22408 
0.383246 -1.35576 -0.219058 0.0657543 -1.35883 0.109315 0.455508 -1.40706 -0.173062 
0.243614 -1.35234 0.267315 0.264072 -1.35818 0.128557 0.421626 -1.35357 0.450284 
0.336779 -1.32108 -0.122054 0.457549 -1.41043 0.0496483 0.63213 -1.27776 -0.367389 
0.525372 -1.29214 -0.291393 0.569791 -1.41475 0.0647688 0.521841 -1.28579 0.488223 
0.648401 -1.41098 0.225083 0.551019 -1.35225 -0.295095 0.456811 -1.41397 0.209309 
0.680934 -1.36122 0.394327 1.07387 -1.29065 -0.270689 0.46437 -1.28465 -0.0796261 
0.428223 -1.34141 -0.0862466 0.501861 -1.32667 0.0154061 0.438075 -1.34192 0.0379192 
0.530229 -1.32984 0.355557 0.577199 -1.29244 0.535635 0.942994 -1.25235 0.531367 
[...]
POINT_DATA 1274
FIELD FieldData 10
VELOCITY 3 1274 double
-0.0010827051 0.00079921755691 -0.002152321387 -0.0047651663214 -0.00037185113583 -0.001024899334 -0.10571313978 -0.017170306666 0.018769810347 
-0.0035957262746 0.0051339205583 0.0010525475241 -0.1436198305 -0.24743741002 0.46791469657 -0.019119438753 -0.022251237419 0.052251139717 
-0.0093282900579 0.00096556266226 -0.007895173425 -0.046017927797 -0.078473470798 0.12020659172 -0.013567566906 -0.051918849026 -0.02774188855 
0.011525249966 -0.0071314475671 0.0011891328942 -0.0030201605748 0.0017496877684 -0.016130224851 0.033481576041 -0.017912999748 0.045572653595 
0.014799507207 -0.0016470667963 0.0056762885216 0.012768551629 -0.010379784659 -0.0016131341288 0.0033755246654 -0.028735195641 0.011011593496 
-0.0031628538666 -0.0058327539185 0.031789108194 -0.0025506074646 -0.045786234086 0.022485834424 0.0029174138138 -0.0066474069971 -0.017787205247 
-0.024891576052 -0.021754184311 0.050170561303 0.0020068124643 0.0011023776881 0.00068003916788 0.001482437482 -0.002898481536 0.0031822221642 
0.0095319721429 -0.02922389242 0.04136029282 -0.13027644399 0.012653460736 -0.06205685997 0.0013498310599 -0.0067994107632 -0.011371183776 
0.044201194159 -0.017569183959 0.010665016178 -0.20523844105 0.12892929222 0.23839038365 0.093903837544 -0.063431314076 0.11789087298 
-0.18017071646 -0.057899743221 -0.25445909938 -0.020098780979 -0.015950100242 0.00044821876854 0.033228108968 -0.0015910514423 -0.01783426099 
0.088021086215 0.033344521928 -0.078039140463 -0.010177688252 -0.0023224082474 0.0066192782439 -0.057766364783 -0.083781133506 0.10191400472 
0.0015982317449 -0.0074520597096 -0.037013487335 -0.05916538049 -0.023899556626 -0.0053832296467 -0.07455312425 -0.014573092561 0.1365302621 
-0.0059921785917 0.0016342171622 0.001930762224 -0.010250296579 -0.035328409326 -0.030555270599 -0.38749412729 -0.18862814053 0.13189933989 
0.0081035732325 -0.077197682216 -0.11259500706 -0.067982104209 -0.062830184395 -0.1081157812 0.052072660233 -0.20461038696 -0.092748429888 
-0.01685745808 -0.016588894258 -0.054585080611 0.087297739286 -0.12462861747 -0.14890950601 0.17430813339 -0.14583878769 0.039424588466 
-0.17676248256 -0.13082562846 0.1350630673 0.015516082613 -0.010572154135 0.0050038065556 -0.073525637784 -0.18869386662 -0.097821592319 
-0.059649946977 -0.021596492335 -0.037405358726 -0.00012896169183 -0.0016922280146 0.0019872083615 0.0029357044492 -0.001029419957 0.0015364701274 
8.2086607116e-05 -0.0087642399468 0.0029213986835 -0.0081863289841 0.0013188438469 -0.0017203536477 0.00066516695145 0.0010712961671 0.0016088813074 
-0.010896410887 -0.010786621297 0.0046641223915 -0.00089918839605 0.0002870131738 -0.00094111864211 -0.014324999227 5.8872199215e-05 -0.012761913052 
0.0015552141845 2.1497611317e-05 -0.0016821985593 -0.011684275353 -0.00081555232486 0.00091845719522 -0.0048056332559 -0.00045499160376 0.013164290567 
-0.0033447441352 0.00071696337294 0.00069774293992 -0.0027206938146 -0.0072400892288 0.0055265262962 0.047462483409 -0.0079963277925 0.03110609061 
-0.00096798333399 -0.0012682667192 0.0030615945697 -0.000643010571 -0.0013721636855 -0.0015699685017 0.038737753559 -0.06780152737 -0.042205936295 
0.0019445775705 0.0018313318586 0.00089125558054 -0.015512758165 0.0030159039747 -0.010854171305 -0.00032140917291 0.00044765869209 -0.018868619436 
-0.13153078085 -0.12070246238 0.017665952867 0.00041693977401 0.00079634402523 0.0047066901111 -0.24033653935 -0.10032762046 -0.087366579953 
-0.026915314843 0.010351991022 0.0075017375355 -0.039348945876 0.018670423347 -0.013311415641 -0.025038197548 0.023609605395 -0.023199378784 
-0.0009514585076 3.9398831274e-05 -0.00080238684471 -0.10356414452 -0.0088206917618 0.023750884718 0.004460802716 -0.0017933883031 0.026503282559 
-0.0062808355356 0.0022550022568 0.0063914283076 0.0026564543392 9.8060945698e-05 0.00012633121005 -0.24561033015 0.016022492483 0.073357021985 
-0.0094192052328 -0.084966051989 0.099896223396 5.2850589674e-05 -0.007032237475 -0.0012505027696 -0.045425903395 -0.023792604364 0.060448378783 
-0.0093761103099 -0.027130973794 -0.014314480335 -0.001586325803 -0.0014822727046 -0.0010052513167 0.0093634779013 -0.0052948164873 0.0016575930758 
0.065999228469 -0.026732228293 -0.065925528217 -0.006546068993 -0.011313956602 -0.010289352511 -0.012862851498 0.008973664826 -0.0079015344786 
-0.0035462331633 -0.010206841675 -0.05974062321 9.1818906658e-05 0.0020880554598 0.0054831329566 -0.0038001557706 -0.013150159175 0.018056589832 
-0.032815600923 -0.024267268797 -0.0068371240079 0.065910144944 0.0089098392633 -0.041872371831 0.0027093864338 -0.0079396520411 -0.012589784808 
-0.0011576006345 0.0014007710984 0.00099356870509 -0.007708373689 0.0041807005257 -0.012513828963 -0.0048842735048 -0.001350810488 0.012195440335 
0.041931200261 -0.0043639840601 0.00080761755911 0.005548136168 -0.0089056185732 -0.0017685396729 -0.0021722157943 0.00095584944618 -0.034735550847 
0.0068164860593 -0.0094985742542 0.0014359334764 0.010844283668 -0.0075445100262 0.0031649053318 0.014392145132 0.0031967187941 0.013676095849 
-0.039434937939 -0.012300989694 -0.020623527472 0.0069412259122 0.0044771390578 0.020237284007 0.011969596458 -0.014643264355 -0.014359295428 
0.0039524321436 -0.0032991239202 0.015107099216 0.00013243973113 -0.029169698968 -0.037493852584 0.0019126419498 -0.01916943093 0.00045782601472 
-0.018405111519 -0.033403320994 -0.0019522309648 -0.010564484489 0.00051388132414 0.0062989028134 -0.10714756024 -0.17442352753 -0.033684088094 
-0.14290727554 -0.092582630114 0.21520271923 0.03940121535 -0.0084452107156 -0.049695234536 -0.017441595175 -0.0064088916485 -7.21375427e-05 
-0.0060673331115 0.0050840585025 0.020106181553 -0.025008974213 -0.017312531567 0.014316802704 -0.020427435504 -0.11191673703 -0.012225649941 
-0.00089265913657 -0.040721866098 -0.022210728179 -0.0072076711145 0.011149851317 -0.0082967157822 -0.0093960107369 -0.012078910402 -0.016327051072 
-0.34051232005 -0.37086075162 0.17191094407 0.00054938031868 -0.0065558358156 -0.039388121145 -0.062873076386 -0.069568669406 0.056272698203 
0.15627036276 -0.077968769625 0.23360321343 -0.042690526501 0.00038680875229 0.037629353427 0.044552213836 -0.011902603645 0.01446132733 
-0.0073542433099 0.013670095409 -0.01908274856 0.035725888171 -0.042981262405 -0.031841800925 0.014242769806 -0.0077619158138 -0.028642567064 
0.090619798773 0.039363738027 -0.0037143183814 -0.0062203038431 -0.011555969293 -0.011199825341 -0.014828823762 -0.0016976833297 -0.06548438134 
-0.0035550458217 0.00045462969513 -0.040946995978 -0.00034202315054 -1.8107575803e-05 0.00019791612569 -0.0027645703249 -0.00036175988602 -0.0010328855799 
0.00034034075814 1.7886044012e-05 0.00013177825702 -0.0001358013165 0.00020466176953 0.0039186017267 -0.0044124473675 4.2403836469e-05 0.00046530661398 
-0.0016466604943 -0.00014772610074 -0.0058421579778 0.00035235535655 -0.00017651285575 2.3450742944e-06 -0.011270189343 0.0056159066882 -0.00021642835245 
4.8701626012e-05 -7.4490707609e-05 0.00011603675208 0.0065108604354 -0.0063139298402 -0.001821036878 -0.0087818415945 -2.7543486644e-05 -6.4315701326e-05 
-0.030592223612 -0.011997393086 0.015913034247 -0.0019424247461 -0.00024940324378 -0.0025932807057 0.00072150603786 -0.00022178756 -0.00050493610831 
-0.00011666880472 0.0067355727642 -0.0062024149428 9.4232400134e-05 -6.9622291642e-05 -0.0002322558411 -0.0097397250167 0.0015065589848 9.1585072133e-05 
0.00033556855422 6.3713964562e-06 -8.9823223973e-06 0.00081223397075 -0.00063527543128 0.0008427633027 0.0057425106156 0.0020451349678 -0.0099613327395 
0.00096958105172 -0.003091280385 -0.00026523290118 -0.038089542025 0.0018487756216 0.011829620094 -0.00031054405319 -0.00027690530637 -0.0013680840471 
-0.0007176347581 0.0018787577343 -0.015615965229 -0.066038471972 -0.017203551176 0.10063468431 -0.033684748771 -0.024992446943 0.0045734976617 
-0.022476543825 -0.050168310885 -0.00088943377531 0.0049122619565 -0.0053612710667 -0.0046813723687 -0.14371000573 -0.0080355490492 -0.049687331444 
-0.001170185727 -0.00055483904618 0.0026924338029 -0.003384995375 0.0010960335984 0.0023886736904 -0.21400970827 -0.025644417495 -0.028186312415 
0.00048065876856 -0.0011939060548 0.0046130084956 -0.023219123661 0.0067811767664 -0.0059474312106 0.077761410155 -0.012170103469 0.0004082134309 
-0.013998640961 -0.0053613759148 -0.019472851099 0.0019301645267 0.0095093468547 0.017640780482 -0.015564639249 0.0023680678302 -0.01202488312 
-0.0019375461085 -0.0003340701784 0.0047543794567 -0.033838053461 -0.014826040581 -1.0621919664e-05 -0.0029495110889 0.00068519554915 0.0020572555092 
-0.0056274521173 -0.022563738888 -0.016524356192 -0.054638952121 0.020737514317 0.0049127269281 0.0047253233656 0.0015974870474 0.010967883302 
-0.0013793784654 0.00314759146 -0.012157688023 -0.28670169419 0.017302566333 -0.077884680421 -0.01443134288 0.001708249066 -0.027410224285 
0.0032210973736 -0.0069086052285 -0.014410635296 -0.037569169509 0.010391475938 -0.0037361463956 -0.0035974039236 -0.0047786454395 -0.0026786884707 
0.0004030632237 0.022683532489 -0.007758407558 -0.00063609453227 -0.00020023912543 0.00040759915356 0.03423257095 -0.01140725866 -0.017039559086 
-0.0269083616 -0.0096344942554 0.013727283272 0.04249651681 -0.017639578541 0.012447274275 0.088723411659 -0.038379800866 -0.040442607989 
-0.0049735874401 -0.0042869038658 0.002368328437 -0.012385143328 0.013883403585 -0.006057192694 -0.010184249705 0.0066528222504 -0.015679525911 
0.008566050528 -0.0080381328199 0.0047847955188 -0.0047644406378 -0.00045825461141 0.0066062411273 -0.012971876072 -0.0066050348095 -0.017219363314 
0.032972212794 -0.0092884719404 -0.065359330954 0.023327962527 -0.0055821124557 -0.014404716013 0.013629957417 -0.022316279475 0.016996925318 
0.018600635546 -0.010215720612 -0.017040291449 -0.0012576540664 -0.038495449008 -0.03393609039 -0.01792423502 -0.075495922675 -0.10633662882 
-0.018332761357 -0.013500728847 -0.0043977447696 -0.0056004656662 -0.016852681133 0.012053635592 0.00057884680892 -0.013491458937 0.0056151867715 
0.011591067059 -0.0057655638164 -0.019462582176 0.0069140006376 -0.010092547966 -0.001636135357 -0.0042268372031 0.0012209068396 -0.0082953401801 
0.01675458717 -0.018759000833 -0.054825269548 0.010413799427 -0.012790593936 -0.038963951887 -0.012265038443 -0.035985273781 -0.06128996732 
0.011987061829 -0.048968507732 0.012601492921 7.0667727357e-05 0.00013369063092 0.00016455618094 -5.7195076707e-05 2.7747397637e-05 6.5778688633e-05 
-0.00013280750325 1.3770855523e-05 -7.7835309484e-05 -5.2711405841e-06 -0.0034302412114 -0.01727789383 0.00029782510063 1.1995826003e-05 -0.001314570274 
0.0053136192095 -0.004302791549 -0.0044146321598 0.0010663230165 -0.0017061837136 -0.00013951143783 -4.4579487037e-05 0.0006207713833 -0.0020217853608 
-1.3733697954e-05 -0.13064254694 -0.14000582384 -0.00062333413815 0.00033483737429 -0.0021390196305 -0.0021485474487 0.00026567143646 -0.0005424253246 
-0.0021855630176 -0.00058932406338 -0.0050361305541 0.00083728289457 -0.00059997228131 -0.0012288406861 -0.00076063422232 -0.00065985192451 0.00047607846019 
0.0069669413943 -0.0025328949818 -0.0015570585502 0.00062248255284 1.4937312945e-12 -0.0040186908736 -0.017347147987 0.0066021398012 0.0036253323826 
-0.020318778825 -0.012742801743 -0.021712250572 0.00084841914217 -3.8318965971e-05 -0.00064027585126 -0.016593919153 -4.1958709962e-05 0.0089040831808 
-0.0020910127663 -1.8370326349e-06 -0.0005049637802 0.00042253543089 -0.0014726731085 -0.001208631529 0.0015993269284 -0.00082596238458 -0.00013802804234 
-0.00026621811384 0.0020549202678 0.0005555347898 -0.0012928169254 6.9061563912e-05 0.0044997443204 -4.5031462784e-05 -0.00027527317671 -7.8855610404e-05 
-0.011467032004 0.00048591289615 0.00012279661808 -0.0040534388684 0.00081303743252 -0.001340218302 -0.018654821027 -4.0439414042e-05 -0.018582663804 
9.5726067888e-05 0.0012374641866 -0.0011992156828 0.0042500472122 0.00014207483445 0.0032794544192 -0.0054465652818 -0.0065579453509 -0.0015586950651 
0.012937733136 -0.0083079225433 -0.014444691461 0.0060952502957 -0.0036000875761 0.00017710169951 -0.0014438235128 3.8123181933e-06 -0.0019073684904 
-5.3170122403e-05 0.00076554539748 -0.0013940154455 -0.011260995637 -0.0041031264867 0.0063552001635 -0.095154511653 -0.028754030596 0.072227804209 
0.00075407014405 0.00057648727348 -0.0013520592066 0.00052904627367 0.00036667840695 -0.00073827532086 0.0027601446503 -0.011522994373 0.0026987894721 
-0.0012638241885 -0.00090689399449 -0.0026455317265 -0.0018078730091 -4.3172515323e-05 -0.0029845039346 0.0017931838351 0.0067301947938 0.018877035247 
-0.00648008684 0.008782473259 0.015889609261 0.011041016865 0.0047649373492 0.0054131235401 -0.080091861757 -0.092500741682 0.085009836117 
-0.0092777724339 -0.0021343957744 -0.020119187072 0.0039462867106 -0.009539282486 0.0059522944347 -0.002244298212 -0.0012612752515 -0.004188539221 
-0.0019798294916 0.0010764078746 -0.001458448575 0.0049099260406 0.00022500254473 0.0014576995975 0.0048663191636 0.00012014964223 -0.0071632294104 
0.0014773370895 3.5305724721e-05 0.0011309764318 -0.0087884675596 -0.015247836808 0.016907606293 -0.040429867098 -0.017903081369 -0.023707505097 
-0.05129280182 -0.0019630822737 -0.01608658026 0.017790992221 0.013345085951 0.001458732283 0.0063664648808 -0.0080996794628 -0.0025902849711 
0.011578015048 -0.017084962581 0.0010497441417 0.0047346747998 -0.010692326485 -0.010578061904 0.0077929680092 -0.010211990791 -0.0036734027506 
0.0039712920849 2.0780587868e-05 0.0016203019488 -0.0026938503588 -0.00094263242619 0.0033045800776 0.012574396904 0.00064174283874 -0.00096003458833 
-0.0068267690446 -0.0032519489801 -0.0060509447645 -1.6136846937e-05 -1.4274131314e-05 0.0023405331022 0.0027170483708 -0.00015027089425 -0.00056121198175 
0.02724409193 0.00072986726969 -0.0023627077557 0.0046266902763 0.002704305959 -0.013938846177 0.0068430041629 -0.001152961289 -0.034428232819 
0.014661107847 0.0030801200017 -0.014306193109 0.027201392351 -0.027974353364 -0.0030208743389 -0.0053071217212 -0.00048736089583 0.0083974287166 
7.245751462e-05 0.00092836188397 -0.0010470272043 -0.0018050443357 0.0015518996868 -0.016305642058 0.00098605190703 -9.2271992965e-13 -0.005008830789 
0.098914677099 -0.055159304417 0.20842126772 0.0034899449109 -0.064965834733 0.034743797758 -0.0024666841387 0.00048201115897 -0.015731794518 
-0.27021784836 -0.30379853708 -0.077739043295 -0.0070616596209 0.0054033689525 -0.0073361409599 -0.037325210203 -0.060154723514 0.037150439511 
0.00011336554918 0.00044111891458 0.00014877049611 7.7557638853e-06 0.00012711347882 -0.00013724727891 5.3865216649e-05 0.00012237875783 -0.00034307908507 
-0.0053999744611 3.4404564834e-05 0.0041063543227 -0.0033144148892 0.00040378812363 0.00011439132149 -0.00021796064628 -0.00036158159824 0.0019940296039 
-0.00022560674757 -5.1487362298e-05 0.00021178100404 0.00012330391004 3.5123765952e-05 -1.7396206294e-05 0.00019399085145 -9.9966253853e-05 -2.1540916171e-05 
7.16618045e-05 4.1395090336e-06 0.00034812470387 -0.0031468997568 8.6236247969e-05 -0.0018972237468 -0.0032715919225 -0.00031501460317 -0.00032891038314 
-0.00079228222942 1.8392735807e-05 0.0038165150898 -0.00091923345333 7.0167233398e-05 0.00011460324658 -0.0033345303107 7.409666841e-05 -0.0023006497858 
-0.015332261563 0.0019365436451 -0.00057066809531 6.2838279088e-06 -6.0812769985e-05 -1.5407132921e-05 -0.00016571930157 5.8547539518e-05 1.5038356472e-05 
0.00089721431783 0.00026036521329 -0.00015978673744 -2.8142840709e-05 -0.00028774863645 -0.00032699901479 -0.003587570777 -3.8858912428e-06 -0.0047592828499 
-0.026492487773 0.0045523805507 0.016828332256 -0.0018572164221 -0.00078509329531 -0.00020159605711 -0.00056425395847 0.001799767418 0.0031891109031 
-0.0038533695396 -0.00010536147137 0.00032578783397 0.0018894747696 0.00097672537086 -0.0054098569409 0.00020436975777 -4.8643986592e-05 0.00019629484756 
-0.00023540509554 -0.00031902797288 0.00057527893449 0.00052202645438 -0.00049929367043 -0.00025348557043 -0.0078434134904 -0.0020738125772 0.0036993129271 
0.00078047787429 -0.0011819399664 0.0023123057264 -0.00079688712521 0.00085491460007 -0.0023913871913 0.0028031996561 -0.00046833752346 0.0023283021401 
-0.0042475703793 0.00070228617357 0.0064128891245 -0.0084389903506 -0.00092553201563 0.0027640893261 -0.00072148535046 -0.00038638089696 -5.6385573262e-05 
-0.00042731297238 -6.27417727e-06 -0.00082026885301 -0.0035539861126 0.001467862932 -0.003098872538 -0.00065087934583 -0.00015173769298 -3.899643116e-05 
-0.005778298123 -0.0060416486217 -0.00030906658058 -0.0014136369302 -0.00026602658076 -0.00040272979042 -0.0071297772234 -0.00044231886759 0.0056521249468 
-0.0049654518815 0.0037911319097 -0.0046295402181 -0.0014528890862 -0.00023966965207 0.00055508682689 -0.0076693730494 -0.0046484120834 -0.0095592065379 
-0.014297451724 -0.0073768538263 0.0070728970953 0.0024556499679 -3.4032538466e-05 0.00097526606456 -0.001478983521 -0.002470858596 -0.0019102342299 
-0.0014176558681 -0.00084652778405 0.0035140433789 -0.0025393118646 0.00042677637392 -0.0003766986267 -0.00059383510081 4.2817327467e-05 -0.00087683671788 
-0.0045152724846 0.00064978359956 0.006725302894 0.0031509517745 -0.0039379306572 -0.0013625096352 -0.0026710444857 0.0022115203354 0.011003762159 
0.0058842004867 -0.0021832560081 -0.0027179263998 -0.0028267648405 0.0012858918794 0.00049026035962 0.00099231705367 0.00081330455973 0.0014295107858 
-0.0067240445947 -0.0023335125269 -0.00093466821813 -0.030668602637 0.01570220058 0.0057736514414 -0.012627470206 -0.051999607861 -0.0012896694238 
-0.011673899823 -0.00023651939227 0.011393520789 -0.011384734193 -0.017990366421 0.013459206963 -0.038505652902 0.01081893109 -0.015192141939 
0.0055514612948 -0.0040123961523 -0.0027407245541 -0.006655184743 -0.012127088813 -0.0044549250398 -0.01473406207 0.0062335238017 -0.009369451927 
-0.025488369013 0.0055563507624 0.0064100894007 0.0010976697595 -9.3503269061e-12 0.0037643502816 -0.0010010691198 0.000290609824 0.0011684827888 
-0.010741574046 -0.0032089520381 -0.013809904524 -0.0095123780766 0.00038819185027 -0.0065543627585 0.0059090193869 2.7758446706e-12 -0.0081373279858 
0.092700421834 -0.04932523864 -0.0039861536329 -0.078402748223 -0.019748911734 -0.0214259284 0.010848463209 -0.0012211289271 -0.014046507496 
0.018576343708 0.0055953153149 -0.014247294332 0.005410710747 -0.0026333119234 -0.027625308925 -0.015272174115 0.0083661221385 -0.0039130281404 
0.015944509609 -0.011695013103 -0.001977361794 0.023492910875 -4.5089200947e-12 -0.0034095707883 0.006497901621 -0.0051606907042 -0.012100934976 
-0.0016299125928 0.00088453507065 0.0051711965492 0.001616726221 -0.042796938907 0.058111329905 -0.013153542338 0.008041230605 1.330496837e-05 
7.4214174689e-05 -0.0019317851597 -0.0071434337251 -0.008211532691 -0.028264349186 0.020712957952 -0.0024770254875 0.0014535339187 0.0062794913612 
-0.024746013319 0.013028280778 -0.023073612979 0.0029682129245 -6.6655977287e-05 -0.012284740233 0.0012040989206 0.00059989205642 0.0044024066151 
-6.687363325e-06 0.00020545245833 0.00012362475785 0.0048624550681 0.00085265741808 0.0045203200408 7.4591495246e-05 -2.4008685516e-05 3.9359922907e-05 
-1.5591695819e-05 -0.0017164176452 0.00568634892 -0.0046833395268 3.0367391998e-05 -9.5057860286e-06 -0.0031996520272 -9.5016175107e-05 -0.00013591824393 
-6.4008324279e-05 -7.5892960275e-05 -0.0010432847515 7.9162218751e-05 -0.00031159777017 1.6090951916e-06 -0.00085532984308 4.4078118029e-12 0.0017767012975 
0.0006451126399 0.00066658580606 -0.0029738801593 -2.7676319753e-05 0.00022502906259 -0.00038007860777 -0.0035604889072 -0.00016842276454 0.00014894810388 
-0.00092150170166 -8.6885673107e-06 -0.0032254048582 -0.00087206947427 -1.1101091255e-05 7.7335219061e-05 -0.0035011663731 0.00013791121373 -0.00011439967317 