# vtk DataFile Version 4.1
vtk output
ASCII
DATASET UNSTRUCTURED_GRID
POINTS 1274 float
0.273688 -1.29446 -0.0533395 0.273623 -1.30218 0.095906 0.279327 -1.29496 0.317591 
0.157815 -1.31607 -0.211031 0.298408 -1.29136 0.178174 0.411477 -1.23449 -0.0669517 
0.381296 -1.29111 0.322114 0.469905 -1.23548 0.492934 0.512113 -1.24363 -0.00816385 
0.637043 -1.2534 -0.00570513 0.538807 -1.3467 0.187562 0.641117 -1.22278 0.434206 
0.85239 -1.27264 -0.151194 0.843406 -1.25444 -0.0829436 0.657662 -1.29639 0.158089 
0.755452 -1.27582 0.265842 0.696168 -1.27023 0.218705 0.79367 -1.208 -0.0449185 
0.637043 -1.20768 -0.0561518 0.672364 -1.34643 0.00780608 0.715396 -1.19079 -0.0822043 
0.69074 -1.30819 0.278156 0.391025 -1.23457 0.281911 0.61515 -1.27214 0.224817 
0.912754 -1.23669 -0.0763493 0.301017 -1.2505 0.128433 0.657499 -1.20795 0.363636 
0.813924 -1.19503 -0.113191 0.921184 -1.31396 -0.000252579 0.822661 -1.22938 0.038029 
0.971608 -1.2086 -0.0149064 0.656927 -1.22805 0.0465506 0.557448 -1.21909 0.378502 
1.08241 -1.22297 -0.287905 1.03372 -1.24153 -0.141544 0.504022 -1.22146 0.280698 
0.789787 -1.27892 -0.0126819 0.634874 -1.27396 0.285647 0.405177 -1.25078 0.137764 
0.952095 -1.20286 0.0596002 0.851312 -1.22704 -0.208435 0.798078 -1.23312 0.160134 
0.838071 -1.21214 0.108771 0.748403 -1.22104 0.215911 0.903272 -1.24345 -0.00510236 
0.985389 -1.23837 -0.236421 0.891719 -1.25247 0.29163 0.886424 -1.21796 0.230345 
0.45187 -1.29941 -0.306767 0.167787 -1.33261 0.280771 0.145316 -1.35894 -0.0654415 
0.0370367 -1.33497 0.17374 0.286259 -1.34237 0.471567 0.255791 -1.33813 0.385016 
0.239799 -1.31342 0.165048 0.379554 -1.35342 0.285078 0.153424 -1.34835 -0.272814 
0.359484 -1.41001 0.0556761 0.61171 -1.2894 -0.213176 0.217756 -1.35347 -0.222005 
0.399465 -1.34728 -0.151237 0.371512 -1.35527 0.404702 0.399006 -1.29306 0.394596 
0.278056 -1.34831 0.208951 0.21333 -1.33852 0.00556342 0.485032 -1.26629 -0.187317 
0.413105 -1.3608 -0.0237174 0.583381 -1.34513 0.299897 0.433119 -1.28262 -0.142612 
0.304056 -1.28409 0.243149 0.552641 -1.36022 -0.0193108 0.37657 -1.27372 0.194392 
0.331404 -1.29842 0.0617349 0.330417 -1.26187 0.445484 0.508652 -1.22753 -0.0834806 
0.623457 -1.4128 0.0996607 0.543758 -1.25127 -0.240617 0.21248 -1.28191 -0.175294 
0.568449 -1.35595 0.0416539 0.541644 -1.30124 -0.0339932 0.327853 -1.26214 0.297866 
0.451189 -1.2885 0.450279 0.57974 -1.33508 0.469957 0.446517 -1.28099 0.264249 
0.511102 -1.29964 0.290936 0.45187 -1.36115 0.112106 0.6159 -1.30379 -0.0478482 
0.643917 -1.22745 -0.214006 0.972736 -1.28523 -0.284457 0.57044 -1.28647 0.172212 
0.474773 -1.28627 -0.25069 0.764548 -1.28925 0.343903 0.645455 -1.32735 0.220657 
0.577113 -1.23895 -0.0539448 0.999433 -1.2667 -0.0442993 0.741675 -1.25486 -0.0611597 
0.68479 -1.29041 0.049406 0.876612 -1.34921 0.162139 0.60319 -1.25474 0.0796463 
0.780222 -1.23222 0.388026 0.790595 -1.24154 0.464761 0.545549 -1.26312 0.232735 
0.82597 -1.35954 0.207662 0.621968 -1.22531 -0.144841 0.687866 -1.23269 -0.0332538 
0.553116 -1.24095 0.123675 0.73239 -1.23673 0.0211251 0.80843 -1.30048 0.177917 
0.828866 -1.25059 0.340837 0.681259 -1.26713 0.329742 0.809165 -1.22666 0.532537 
0.912662 -1.24748 -0.369587 0.769527 -1.31008 0.0490158 0.437577 -1.25607 0.192603 
0.723892 -1.22675 0.535002 1.16358 -1.22125 0.01165 0.628898 -1.26641 0.530069 
0.734232 -1.22569 0.317613 0.704874 -1.24505 0.41568 0.578894 -1.24357 0.0152558 
0.958765 -1.29298 0.219277 1.10579 -1.23869 -0.167238 0.838877 -1.30532 0.0441655 
0.976809 -1.22613 -0.0922803 0.908177 -1.28983 0.0618191 0.616213 -1.23688 0.14737 
1.32158 -1.19724 0.526037 0.738719 -1.25649 0.160937 0.939967 -1.22545 0.194075 
0.95206 -1.20844 0.423042 1.21203 -1.26366 -0.18295 0.90503 -1.23201 0.0976716 
1.04494 -1.226 -0.00806726 0.863896 -1.23348 0.17197 1.10035 -1.25837 -0.0324529 
0.963307 -1.26311 0.0318378 0.0866591 -1.41341 -0.246673 0.285892 -1.36066 -0.213147 
0.430076 -1.40919 -0.397639 0.0351688 -1.35954 0.315592 0.213218 -1.3212 0.482541 
0.0966147 -1.40799 0.156602 0.216662 -1.34411 -0.402017 0.500315 -1.31852 -0.348266 
0.0870819 -1.35982 -0.381529 0.493636 -1.34761 0.459654 0.251 -1.27902 0.529061 
0.147216 -1.35436 0.379502 0.241012 -1.41179 0.297783 0.0966154 -1.35824 -0.0126501 
0.276943 -1.32017 -0.156501 0.0800799 -1.3588 -0.289012 0.472041 -1.35384 0.309848 
0.348584 -1.40768 -0.0292268 0.129585 -1.34343 0.230506 0.213172 -1.33467 0.0980734 
0.21953 -1.29567 0.291489 0.320427 -1.29145 -0.294913 0.270923 -1.34801 0.0404742 
0.422401 -1.31827 0.166069 0.0824631 -1.29268 0.215248 0.515732 -1.30068 0.418952 
0.893131 -1.30022 0.533049 0.547035 -1.35576 0.420348 0.240723 -1.29492 0.228721 
0.318107 -1.35522 0.157033 0.318819 -1.35427 0.0926745 0.366992 -1.28851 -0.232315 
0.520289 -1.333 -0.241337 0.492544 -1.2928 0.204115 0.548567 -1.22589 0.527673 
0.64451 -1.28726 0.408203 0.776762 -1.34073 0.462265 0.423626 -1.34424 0.228887 
0.676804 -1.41468 0.136507 0.589172 -1.22276 -0.399396 0.601074 -1.35843 0.188464 
0.854231 -1.22711 -0.316179 0.390827 -1.29517 -0.298411 0.828407 -1.29979 0.283796 
0.759036 -1.28957 0.419796 0.332662 -1.28437 -0.171998 0.57128 -1.27629 0.288664 
0.670121 -1.27276 -0.166646 0.490129 -1.24968 0.145407 0.87953 -1.29186 0.214294 
0.97031 -1.38754 0.0887461 0.535618 -1.28035 0.056481 0.995174 -1.25535 0.443802 
0.648732 -1.33019 0.341102 0.941792 -1.29609 -0.0630797 0.671505 -1.21079 -0.28374 
0.725609 -1.22907 -0.145193 0.791262 -1.30419 -0.0807183 0.820947 -1.34985 -0.0455296 
0.739899 -1.31837 0.177967 0.702643 -1.3551 0.138519 0.859649 -1.29909 -0.0262988 
1.00892 -1.24926 0.086562 1.06214 -1.27493 0.0385754 0.912261 -1.25105 -0.140045 
0.7869 -1.28885 0.114875 1.10905 -1.28514 0.393757 1.0043 -1.2468 0.18903 
0.818623 -1.24339 0.228995 0.698415 -1.25827 0.110989 0.931408 -1.36157 0.216238 
0.857244 -1.28508 0.118885 1.19579 -1.36102 0.117234 0.947625 -1.35368 0.143771 
1.12381 -1.25909 -0.0981292 1.02645 -1.26091 0.275361 0.763058 -1.22448 0.0950735 
0.992975 -1.3544 0.196341 0.297589 -1.4153 -0.358871 0.199595 -1.37214 -0.327223 
0.0322034 -1.4135 -0.0345987 0.441326 -1.28069 0.531353 0.0339859 -1.41171 0.1913 
0.0880407 -1.32443 -0.107028 0.340215 -1.30687 -0.394474 0.0369043 -1.3621 0.0211667 
0.0326481 -1.34523 0.488212 0.346415 -1.40639 0.1985 0.151685 -1.41314 0.444406 
0.323915 -1.34692 0.532516 0.0880745 -1.39514 0.22736 0.326575 -1.35888 -0.26553 
0.218175 -1.35078 -0.129002 0.247961 -1.41429 -0.201222 0.124812 -1.33758 0.15301 
0.3119 -1.29155 0.501988 0.091479 -1.3372 -0.219841 1.00547 -1.41418 0.472963 
0.234079 -1.40735 0.202615 0.218292 -1.3417 -0.0602081 0.403427 -1.35844 -0.282328 
0.150934 -1.32357 -0.00109714 0.582362 -1.41374 0.215425 0.468989 -1.4131 0.144627 
0.45226 -1.28907 0.341081 0.273841 -1.35696 0.322769 0.194261 -1.36246 0.15758 
0.311495 -1.34572 0.270452 0.802575 -1.4127 -0.226419 0.190214 -1.38814 0.264685 
0.356629 -1.34238 -0.0620901 0.161695 -1.30576 -0.120773 0.394473 -1.41526 -0.14134 
0.293252 -1.3543 -0.0873502 0.465383 -1.33986 0.396011 0.479133 -1.25494 0.394914 
0.297844 -1.35991 -0.0221263 0.358415 -1.34945 0.0162989 0.8009 -1.29763 -0.212211 
0.378928 -1.36167 0.155184 0.336234 -1.34528 -0.179596 0.352545 -1.29995 0.131932 
0.377611 -1.29362 0.256163 0.347365 -1.33269 0.211683 0.525976 -1.23585 0.436721 
0.447917 -1.29515 0.108863 0.734844 -1.25938 -0.21032 1.05805 -1.36702 -0.147653 
0.310192 -1.30423 0.00398243 0.443687 -1.30485 -0.0198136 0.836482 -1.41477 -0.140655 
0.613574 -1.36233 -0.011433 0.649995 -1.36311 0.275169 0.50148 -1.35076 0.244421 
0.518304 -1.26078 0.345309 1.14793 -1.36794 0.380235 0.628742 -1.36895 -0.0746855 
1.12054 -1.28381 -0.219273 0.725243 -1.29686 -0.116652 0.853564 -1.32465 -0.107635 
0.686951 -1.3636 -0.0514653 0.746257 -1.34163 -0.0064927 0.897863 -1.35459 -0.0555534 
1.05007 -1.2361 0.467564 0.63596 -1.31482 0.0923131 0.840973 -1.41501 0.253974 
0.652727 -1.2581 -0.0945801 0.895555 -1.35379 0.0898418 1.09816 -1.31898 -0.00111136 
1.01077 -1.31117 0.00853178 0.813364 -1.37075 0.0466192 0.753403 -1.33959 0.102021 
0.695582 -1.29834 -0.0353041 1.05045 -1.34978 0.154925 0.854844 -1.41217 0.0914247 
1.18055 -1.23158 0.410073 0.994621 -1.29004 -0.106005 1.09753 -1.40835 0.172922 
0.963274 -1.37555 -0.0366726 0.971502 -1.31626 0.0849875 0.859223 -1.20954 0.455326 
0.0341698 -1.37732 -0.227727 0.0314945 -1.41421 -0.173465 0.0354917 -1.41021 0.467885 
0.0724079 -1.41424 0.307845 0.0838601 -1.37136 0.528368 0.0998692 -1.41553 0.479686 
0.0770171 -1.41064 -0.339163 0.166904 -1.39474 -0.39495 0.384446 -1.36053 -0.403686 
0.0336249 -1.41208 -0.285934 0.0513127 -1.41294 0.0665667 0.26474 -1.4091 0.470981 
0.0355823 -1.41055 0.363979 0.240226 -1.4087 0.370451 0.142626 -1.41182 0.527235 
0.301245 -1.35417 -0.332178 0.142945 -1.41429 -0.331466 0.14581 -1.41471 -0.269127 
0.640456 -1.41014 -0.320176 0.424297 -1.41293 -0.237048 0.115821 -1.41367 0.0604352 
0.0974879 -1.34391 0.422083 0.392053 -1.33181 0.529311 0.109645 -1.35188 0.315622 
0.500948 -1.4062 0.400674 0.175013 -1.3714 0.0533472 0.310267 -1.40789 -0.168355 
0.292558 -1.41419 0.0897372 0.209803 -1.40954 -0.0930482 0.355144 -1.3489 0.469605 
0.316697 -1.32226 0.415513 0.291431 -1.40986 0.249618 0.713847 -1.35033 0.518675 
0.20712 -1.35179 0.332052 0.410907 -1.3501 0.349665 0.453617 -1.34853 -0.224172 
0.383523 -1.3558 -0.218958 0.0654509 -1.35874 0.109027 0.45532 -1.40706 -0.173003 
0.243165 -1.35271 0.267313 0.263584 -1.35817 0.128585 0.420481 -1.35384 0.45063 
0.336737 -1.32097 -0.122274 0.457253 -1.41043 0.0499389 0.621459 -1.2862 -0.38227 
0.523286 -1.29211 -0.290439 0.569896 -1.41475 0.0649531 0.518709 -1.2859 0.48965 
0.648231 -1.41098 0.22541 0.550321 -1.35131 -0.296719 0.456609 -1.41397 0.209117 
0.680576 -1.36146 0.394781 1.0727 -1.29141 -0.269875 0.462885 -1.28387 -0.0797401 
0.42786 -1.34138 -0.0859256 0.501887 -1.32632 0.0148967 0.438304 -1.34185 0.0377547 
0.529258 -1.33129 0.355549 0.571451 -1.28977 0.535691 0.942795 -1.25486 0.531367 
[...]
POINT_DATA 1274
FIELD FieldData 10
VELOCITY 3 1274 double
-8.9088792029e-06 -2.982226834e-05 -0.00010418104023 -0.00024609846623 2.5671731534e-05 6.1777111311e-05 -0.00020901456586 -3.506756369e-05 0.00013616540734 
-7.8143628821e-05 7.9100224822e-05 4.5745414535e-05 -0.00015146683184 -1.8333591183e-05 5.1660425603e-05 -0.00010549333818 7.4814174553e-05 0.00018442170022 
-0.00021840476408 -5.9382084039e-05 -5.6447738213e-06 -0.00025483492338 2.8320620972e-06 -0.00012150065194 2.7384645043e-05 7.746617101e-05 -0.000162296067 
5.6371061898e-05 -0.00010356812616 -0.00013073004899 -0.0001345811446 5.216938e-05 -1.3447124892e-05 -0.00021218552685 -0.00028656930001 -0.00011441672844 
-4.463225986e-05 -0.00010981245316 5.3877109122e-05 -8.2125182761e-05 3.8443602007e-06 -8.0009138152e-06 -0.00010774914481 -1.701938395e-05 4.6810759487e-05 
3.7488441842e-05 7.4823786162e-05 -4.5211213028e-05 1.8032396787e-05 6.3496349468e-05 -4.8762469321e-05 -0.00029206022512 -0.00013462885341 -3.9446218248e-05 
-7.8072927395e-07 -0.00018304672367 -0.00020829414738 -4.553258573e-05 2.3062414255e-05 9.7207120714e-05 0.00038601852353 -7.9906306412e-05 4.0547915166e-05 
9.775606728e-05 -7.5620292723e-05 -0.00017050047102 5.0574276784e-05 -4.6206098305e-05 0.00010722975908 -0.0001072398239 -2.7214414557e-05 2.2415224528e-05 
-0.00010059817663 -8.5194004512e-05 0.00021504814639 -0.00018957187611 -6.8184395477e-07 6.0546971171e-05 -3.6052838e-05 -0.00012411983188 -1.6129262057e-05 
-0.00025499125632 -8.0064738685e-05 -2.1559372253e-05 -0.00014449522628 -9.4919919765e-05 7.9483657865e-05 -0.00036429991115 -7.9408102872e-05 -5.7977407156e-05 
-0.00017456330499 -5.7936785837e-05 0.00018720294238 -1.0932567053e-05 4.6597126134e-05 -0.00019505858378 -0.00021682271391 -0.0001838325901 -2.4713809983e-05 
3.1381496742e-05 -0.00021052851348 -0.00010922433499 0.00012859501193 4.6932661476e-05 -3.101815722e-05 8.7592732159e-05 -0.00013650062809 1.0723092745e-05 
-9.5662220035e-05 -0.00017991817299 -0.00016695400317 -4.1752346195e-05 -0.0002453371208 -6.335734873e-06 -8.7784079502e-05 -0.00010307073037 -8.5064817743e-05 
0.0004854551185 -0.00026079354613 0.00030441875616 -7.0510701952e-05 -0.0003068501825 0.00010714331646 -5.8874399697e-06 7.9810874635e-06 3.1700277808e-05 
-0.0001847714945 -3.3210904756e-05 -9.231353848e-05 0.00013918776352 -5.2113110786e-05 -0.00015146127954 -0.00019341403019 -5.2285988302e-06 0.0003189798345 
0.00015065154647 -0.00019978228793 0.00010234746248 -1.6167290559e-05 -0.00016117207603 9.8548451363e-05 -0.00045711896478 -4.6021075522e-05 0.00022774780101 
-0.00017171690101 -1.30965792e-05 -5.5598337995e-05 -5.0281551527e-05 -7.2738158669e-05 -2.2051219561e-05 3.9876506964e-05 -6.9281140022e-05 -1.061615054e-05 
1.1327236607e-05 -0.0003585493861 0.00010867677286 -0.00014425787273 -5.3574322432e-05 -7.7561484844e-05 -0.0001796847605 0.00010201811248 4.5355962371e-05 
-0.0001122495363 -6.9708836158e-05 0.00014773494522 -0.00010127587536 -2.55394738e-05 -6.3799378576e-05 9.8720242729e-05 -1.7821870837e-05 6.8601641111e-05 
8.4397750021e-05 1.4103676001e-06 3.4201380038e-05 -8.7267835488e-05 4.3292825266e-05 5.5743279159e-05 -7.4728417165e-05 -1.2146546502e-06 0.00013028732151 
-0.00015717983449 6.2516102589e-06 0.00018238883279 -0.00016404890714 -0.00012328298545 -4.4200277798e-06 -0.00030005584972 -2.869560798e-05 3.6815161055e-06 
1.8328890485e-06 -6.8471190793e-05 0.00014908039086 -0.00015115291646 -0.00023465285669 0.00022276582775 -7.6291696153e-05 -0.00016577705384 3.2769445816e-07 
-0.00023864832656 2.2183090764e-05 6.8427409932e-05 -5.5146606153e-05 3.3826512179e-05 7.6589297542e-05 -0.00012665172012 4.3719534164e-05 3.3381901072e-06 
-0.00011382471692 -3.8156719667e-05 3.6325054896e-05 -0.00016020080364 5.4399319755e-05 0.00017809666872 -0.00014608100345 -2.6815536121e-05 -1.0139634235e-05 
7.9242679809e-06 -8.8571524327e-05 -6.175153577e-05 -0.000173942243 6.8449395828e-05 -2.0044361599e-05 3.4136914369e-05 -0.00010129390428 -0.00014127558373 
-8.3363925209e-05 -3.3746845126e-05 0.00012564768907 -0.00022037123793 -0.0001306719302 8.800066815e-05 5.3673234363e-05 -8.4333454797e-05 6.8245177717e-05 
4.4623005182e-05 5.3972744134e-05 0.00020779930501 0.00030667738042 9.1986779823e-05 0.00013263900091 -0.00026959329026 5.684205862e-06 0.00012297893013 
-0.00026115419464 -9.5305987181e-05 -5.1403672735e-05 -0.00022617972303 -0.00015983023581 8.6297107335e-05 5.0671371509e-05 -8.7132870688e-05 5.0858723088e-05 
3.3631786393e-05 -0.00025457667328 -0.00010757973988 -0.00022410292944 -5.5903768038e-05 -0.00014666598622 0.00019722253076 -0.00017480327206 -0.0001199713771 
0.00023369534454 -0.00013449137628 7.406764915e-05 6.6308987084e-05 -0.00018027325569 0.00013865629134 4.1672748789e-05 -0.00017426993032 -8.6005975431e-05 
-0.0002339390348 6.7040680932e-05 -1.1710108114e-05 -0.00010296732144 -6.1522215449e-05 -8.6701166902e-06 -0.00010787762898 -1.304585514e-05 -5.8079633429e-05 
3.9493396442e-05 -0.00027113889705 -0.00019914973725 -4.1733873111e-05 -4.7762119262e-06 0.00017709207177 -5.2229638308e-05 -0.00035540963843 -0.00026418557275 
-3.2830866772e-05 4.3646120105e-05 -4.5582417363e-05 0.00022117800472 -5.8099000378e-05 0.0001503115592 3.3538782975e-05 -1.9609208401e-05 -0.00013066873665 
-9.0728518772e-06 3.7460980296e-06 -8.0173543122e-05 -0.00025329315201 6.621510042e-05 2.8404057377e-05 7.0403939213e-07 -1.5845608633e-05 -0.00016861745249 
-0.00017199293936 9.3774393933e-05 7.4762480166e-05 -0.00010592412656 -0.00029388063268 -9.8578603717e-05 1.2012923734e-05 -0.00011444933358 -0.00020126836334 
-3.397486463e-05 -0.00030386408816 -0.00015470765443 -4.4705187591e-05 -3.8828109854e-06 -0.00014013214757 -3.9560685328e-05 -1.7693439418e-06 -0.00015797197273 
8.8692768569e-05 -0.00019930723881 0.00010604982622 -1.5430341686e-05 -5.2891654517e-05 -0.00015752448906 -7.3990246187e-05 -6.4877998989e-06 1.0885704758e-05 
9.0534555546e-05 -8.9408949133e-05 0.00016404471786 -0.00011784726768 -0.00029187728598 7.5028744158e-05 -0.00012666603832 -8.1656624385e-05 -6.6938326988e-05 
1.7141933881e-05 1.8142855027e-05 2.3571172851e-07 7.7215788624e-05 -0.00011201218352 -0.00014298301333 -4.0373541575e-05 -3.1216062257e-05 -3.6710188542e-05 
-2.9705911233e-05 -6.8044619521e-07 -1.1042475816e-05 -8.3743050619e-05 9.8899988615e-05 2.2808525546e-05 1.614227762e-05 -0.00029032855457 -0.0001881724772 
9.0999404674e-05 -0.00036676535368 -0.00018467307964 8.4588268883e-05 4.729264914e-05 -0.00011764356172 -0.00020966890604 -3.0042020355e-05 -1.509919049e-05 
-0.00013399698357 -9.1120206085e-05 0.00010482842406 -7.8619820384e-05 1.6058331069e-05 4.2827847277e-05 -0.00012612579594 -2.5361128248e-05 -0.00012210196095 
-5.5174026663e-06 -5.37090385e-05 -4.8329998124e-05 2.0090148953e-05 -3.5161457105e-05 -9.4861665353e-05 -0.00034156244148 -0.00021979688179 0.0004028131927 
-0.00029459690318 -0.00012452948055 1.8710505256e-05 0.0001265677796 -0.00021990980649 -0.00013497019539 -0.000167242968 0.00011705022308 -0.00014098347126 
-0.00015609157272 -0.00018220167982 -6.2947931178e-05 8.3751276396e-05 -9.798227898e-05 -1.1938167391e-06 -0.0002727708816 -0.0001542890277 -0.00025600955555 
-7.0608637034e-05 -0.00023483270071 2.9518434821e-05 -1.8104635596e-05 1.0406743356e-06 1.7567664053e-05 -1.2990068592e-05 3.105977704e-05 -3.8784050924e-05 
5.1542607192e-05 -1.265294478e-05 -3.5764514141e-05 -5.5540176817e-06 3.7982151523e-05 0.00019805006066 -4.0234006919e-05 -7.485980733e-05 -2.8984205119e-05 
-8.4082742669e-05 1.2379642348e-05 -0.00010582708639 2.4460441193e-05 1.9400507392e-05 -5.279994495e-06 -0.00017381185925 -1.8177188645e-05 -4.1531604692e-05 
-8.4722221733e-06 9.3360237543e-06 -2.8558151341e-05 -3.9288786334e-06 -8.2083141801e-06 -5.4752125683e-05 -5.1652675181e-05 -4.8208588114e-05 -6.583529138e-06 
0.00010363973414 -2.4387576929e-06 5.2162400304e-05 -5.7187440894e-06 8.5570420343e-06 3.7515980809e-05 -7.1780502731e-05 -4.0049643033e-05 -0.0001138936203 
-6.1183307792e-05 -0.00022986176786 7.3347865969e-05 -2.2566744038e-05 1.5375687741e-05 -4.3469574016e-05 -0.00024472104124 1.1800206295e-05 -0.00010561868958 
-9.3390421725e-05 0.00014752899215 0.0001347524189 -9.6218402489e-05 3.6425695743e-05 -1.4419872163e-06 -9.9612798626e-05 -6.6672430861e-05 -5.655581468e-05 
-0.00013479945898 1.0812270716e-05 4.2308066755e-05 -0.00018366540069 -3.5153252429e-06 4.0877039751e-05 3.0439016106e-05 -3.6296263096e-05 3.0284565022e-05 
-8.2236737907e-05 2.2011690783e-05 -6.999072217e-05 -0.00016386205901 -5.2544711507e-05 -3.1545834346e-05 0.00029552713123 -8.6844980573e-05 -2.1700553878e-05 
-7.7724760035e-05 3.6767678675e-05 0.00014014299599 0.00012966391886 -7.9818746078e-05 -7.5191686771e-05 -0.00014017995186 -1.700352316e-05 4.5420137626e-05 
-8.7698161331e-05 5.9388462577e-05 2.8510588626e-05 -0.00013687219259 3.8220600418e-05 0.00014815219647 -0.00019675332688 -5.0154361973e-05 3.723240587e-05 
3.8213602355e-05 -0.00024253532908 0.00010656418008 -0.00010046676738 -1.3969209812e-06 6.2000959764e-05 6.3559675328e-05 -8.9575620616e-05 1.1049513098e-05 
-0.00010948195668 7.1346193169e-05 -3.7416518111e-05 -0.00015598045334 5.7278409056e-05 0.00015635207829 -0.00025481534314 7.8101674187e-05 -7.2523967893e-05 
-0.000124674756 -1.663610047e-05 2.8086877654e-05 9.107339144e-05 -0.00027033159919 3.4912836018e-06 -0.0001206182251 4.1689775544e-05 -5.6163822124e-06 
5.9912707017e-05 -0.0001702654602 0.00019369456912 -0.00019961247671 -7.9880595781e-06 6.3218709495e-05 -8.7049583574e-05 -0.00011190823462 0.00014195504664 
-8.8045403375e-05 5.3698372735e-05 -6.3812851063e-05 -0.00013323772617 5.1529177185e-05 8.9019430975e-05 -8.7748576287e-05 -3.0773925277e-05 -0.00012418047394 
-3.4113241794e-05 -0.00028244208173 0.0001237335534 -1.7577730605e-05 -7.5386894882e-05 6.3978213988e-06 5.4439404922e-05 2.7942217e-05 9.0124634366e-05 
-9.0893034598e-05 0.00019055187003 4.4086950525e-05 -1.3304841887e-05 -4.1122312432e-05 6.3672490011e-06 0.00026924416128 -0.00012087195611 -8.6315784753e-05 
6.4142811615e-05 -7.3806277951e-05 1.2339721507e-05 1.3291018645e-05 -1.6637708478e-05 9.660102414e-05 -0.00018200334916 -0.00022367765779 -0.00014263824299 
-0.00015223650415 -5.709776979e-05 -5.5975269084e-05 -5.5542864686e-05 -3.8458541053e-05 -3.7704802245e-05 7.46597724e-05 -2.5099194949e-05 -0.00017680285958 
-3.5485977421e-05 -7.582764136e-05 -0.00014309312872 -0.0002644394752 -8.4510704838e-05 4.5361295533e-05 9.0367069651e-06 -5.3213647613e-06 0.00013392898279 
0.00011390830012 -2.3046785855e-05 -0.0002169035601 7.5472361778e-05 -0.00016582961951 -9.7742473746e-05 -7.8246549016e-05 -6.4374783761e-05 0.00023140864978 
9.6919650046e-06 -6.1473370469e-05 -0.00010176852699 -0.00027449954828 -0.00069189516143 -0.00062742028957 -7.4321687648e-05 -5.8896648756e-06 0.00010805170961 
0.00011691350861 -0.00011422112552 -1.0808271381e-07 -0.00013380861463 -3.814920404e-05 1.6629123676e-05 -0.00027180567342 -0.0002020698377 -0.00034768121519 
8.5835080201e-05 -5.4195823832e-05 -0.00014141169938 9.6497905856e-06 -0.00013229264457 9.7489072562e-05 0.0002002144732 0.00013138810655 0.00016453897613 
3.124205152e-05 -0.0001523401492 -0.000163533909 -2.3560087812e-05 -0.00014421023345 5.4681955226e-05 -0.00012769043336 -0.00015780258439 -0.00012093156849 
-0.00019028297082 -0.0007306457742 -0.0002821014701 8.5284145765e-05 0.000168586887 -0.00017400963553 -1.8118845591e-06 3.0664843051e-05 -9.6036759335e-06 
1.5472373194e-05 -1.7849851723e-05 -6.2063799475e-05 -7.3174494032e-05 -3.0609413003e-06 -1.7772603133e-05 1.7611630909e-05 -0.00026186288133 0.00017235663689 
5.3173711757e-05 -0.00017227376633 -3.200751658e-05 -1.0321645057e-05 -1.7959439062e-05 1.200369677e-05 1.7752380475e-05 1.0515789106e-05 5.1299415684e-05 
-6.9073375915e-06 5.4115373755e-05 -0.00018171023435 -9.61325557e-05 -1.3532412471e-05 6.8096023037e-06 -0.00028487774163 0.00019639785945 -0.00019417322163 
-9.2506285091e-05 -2.4808183616e-05 3.0857046521e-05 -3.2216705679e-05 7.5230586632e-05 3.5187469924e-05 -3.3948922172e-05 -1.4036396574e-05 -2.0498588665e-05 
-5.3943866952e-05 -0.00010190627236 0.00016972845541 -0.00061799765896 7.3975389403e-12 0.00080473983804 -0.00016897354091 4.4811927075e-05 1.9504405088e-05 
-6.2940304917e-05 -5.3546758762e-05 -5.4826902818e-05 -5.8528450711e-05 0.00013804208922 -6.324802309e-05 -9.2129351432e-05 -2.8561448754e-06 6.1139343027e-05 
-0.0001359517945 1.4927748868e-05 -7.2014469015e-05 0.00012489739894 -0.00016495239958 0.00014629169391 5.1216386467e-06 1.2646727614e-05 -2.8833369386e-05 
-7.6552677834e-05 -7.4595576546e-05 -3.5375287726e-05 -2.4422988232e-05 -2.2599685008e-06 0.00013765723844 2.4307861536e-05 3.1568781524e-05 6.8945901806e-05 
-0.00026041588402 -3.2398301503e-05 6.4938675798e-05 -8.0740404832e-05 -2.4168213793e-05 9.0650454165e-05 -0.00018353145182 2.0872651734e-05 -2.5880004806e-05 
-0.00012369639039 -3.7979987006e-05 8.4564893382e-05 9.0327748029e-05 -4.6916490451e-06 -0.00015936257736 -1.8995979694e-06 -0.00016447244029 2.3987026703e-05 
0.00015185060478 -9.1062217833e-05 -1.6901080984e-05 2.4665717189e-05 2.0171992388e-05 8.7402264277e-05 -5.105432494e-05 3.525646639e-06 0.00015071220841 
5.293011958e-05 -4.6444216577e-05 -1.9778511093e-05 -0.00019665547588 -7.521023974e-05 -4.4619973645e-05 -0.0001178581341 -7.857830906e-05 5.7348361203e-05 
-0.00011337979791 -5.1567047771e-05 4.0416558987e-05 -0.00019296327779 -3.1510079334e-05 2.0585561876e-05 6.706594393e-05 -0.00015687428585 -6.7125611898e-05 
-6.9202488515e-05 -1.3069371132e-06 -3.5011831025e-05 7.653150563e-06 0.00017150307844 -0.00013583264452 -0.00015412527725 -1.6653830893e-05 -1.2896896982e-07 
-2.8704789713e-05 2.3719326729e-05 1.7084752573e-06 -5.7245423416e-05 -2.6806330584e-05 6.8780183305e-05 -5.7061444313e-05 -0.00017231345531 5.4450944811e-05 
9.4886840761e-05 -7.3146421481e-05 -4.3545270046e-05 -3.9811858192e-05 -0.0003649962539 9.8655141864e-05 -6.6959214974e-06 -3.6275582518e-05 2.8186652208e-05 
-0.00018176326773 8.2131363695e-06 9.2538496691e-06 -6.4792507843e-05 -6.4133061393e-05 -2.6250507227e-05 -5.0136986847e-05 -1.4288508071e-05 6.9673209324e-05 
-3.3372442217e-05 -9.2026519507e-05 -0.00011870397064 -4.7553739763e-05 -0.00010464575794 0.0001331233558 -0.00019463823769 -6.2404152679e-05 -6.8368664554e-06 
-0.00011912247185 -0.00022673859425 -5.9292210664e-06 6.4040616528e-05 3.5087829378e-05 4.0118993843e-05 -5.7316027779e-05 -8.3491059353e-05 2.9275084817e-05 
8.3483829233e-05 -6.6404567033e-05 -0.00012632374146 4.2729098096e-05 -0.00021198887145 -0.00038964250863 -0.00017317458339 -5.8243172177e-05 0.00013725033933 
2.8456538684e-05 4.3735486933e-05 2.1250284821e-05 -0.00014475565773 -6.8795272907e-05 -3.8679846923e-05 8.813331504e-06 1.2236706287e-06 1.8334266849e-05 
0.00015863430167 -6.5994818414e-06 5.6696729196e-05 3.0372487314e-05 -4.2728442527e-05 -2.5257274044e-05 -0.00023064925411 -4.3780607218e-06 -0.00021123150431 
-4.1440885798e-05 -0.00024940795313 -0.00013051335788 -0.00013352932266 8.645093028e-06 2.5801630334e-05 -4.6501165414e-05 -0.0002821071735 -0.00022080041201 
1.3938383118e-05 -0.00010875278716 -3.6385699496e-05 0.00021413098595 -0.00013664291185 2.216471485e-05 -0.00018397046004 -2.776399598e-05 0.0002682967211 
-0.00019290411189 -0.00016884691306 -0.00020014335964 3.330908277e-05 9.5809277007e-05 -0.00014251554617 -1.663154159e-05 1.4119705818e-05 0.00018894510129 
0.00017081786373 -0.00023653883925 -3.0831357634e-05 0.0001373018851 9.785707824e-06 0.00015432410482 -0.00031333236965 -3.6296452369e-05 -0.00027526800064 
-0.00015152047455 -7.4169064054e-05 0.00010451428573 -0.00012736171671 0.00014208653255 1.1787346094e-05 -0.00023421880413 -0.0001876004886 -0.0004687341637 
1.6884502024e-05 -4.2281709762e-05 -0.00020542964364 -0.00013757715979 0.00018523740959 -8.8861044031e-05 -1.4409548626e-05 -3.3651084487e-05 -2.3623411369e-07 
-5.3744686453e-05 3.5150294406e-12 0.00021754223253 -0.00019507733545 9.1856762071e-05 -3.3299124373e-05 9.9227321523e-05 1.818542844e-05 0.00040272806615 
7.800841354e-05 2.6943277923e-05 -0.00012784683918 -5.8822856514e-06 4.4594995391e-05 -2.8660706313e-06 2.1861595973e-05 5.6102092879e-06 2.3162636933e-05 
3.3592104374e-05 1.5711613435e-05 -3.8177409994e-05 -2.4864621183e-05 -2.2095186167e-05 -1.4354198929e-05 -0.00027019572559 -3.9474589014e-05 -9.430035053e-05 
2.9871759771e-05 -2.1530054948e-06 0.00014986834309 0.00011966916757 5.390083785e-06 6.6030955799e-05 -0.00019756749604 -3.7443267328e-06 0.00026571201177 
-0.00011106953139 -6.6891006145e-05 0.00015361454358 1.7451733746e-05 -6.2027551396e-05 -1.3844232456e-05 -5.8197097594e-05 9.8211378122e-05 -1.1673382165e-05 
6.0493297987e-05 -7.7161476762e-06 0.00012015017102 -3.5794081081e-05 -3.6048854461e-06 1.3301932081e-05 -4.9838651065e-05 2.4014466721e-12 -0.00010956749741 
7.988756231e-06 3.7984276067e-05 -3.0510608346e-05 -7.9978464491e-05 4.8880154301e-06 -1.78136615e-05 -6.3421611178e-06 2.0570611058e-05 0.00011832557177 
4.6117777656e-05 -2.0005410783e-06 -0.00023966106288 -9.368041833e-05 -4.2454195034e-05 -0.00012388481695 -2.2378398394e-05 8.3038570323e-05 -3.7912220091e-05 
3.7399883169e-05 -1.3151620849e-05 -1.6003152768e-06 -7.0547937182e-05 -0.00021622645491 -4.0553499386e-06 -0.00017394341454 -3.5682763165e-05 7.6569541265e-05 
-7.5677010571e-05 2.3907554096e-05 2.9968767685e-05 -5.1641041274e-05 -1.6224715069e-05 5.7821556306e-05 2.544101073e-05 4.457411825e-05 0.00014051716256 
-8.9475333169e-05 -1.2502591803e-05 6.3762811289e-05 -0.00028547946551 -4.6520225314e-05 -2.1222736725e-05 1.2312412518e-05 -3.4654387912e-05 2.5454096161e-05 
0.00010643321595 4.0004542831e-05 7.2981977993e-05 -9.0873536268e-05 3.1341270461e-05 -6.1437942289e-05 -0.00017529382814 4.1454856078e-05 6.0244336088e-05 
-0.00021515772833 2.1333486922e-05 2.8778788084e-07 -6.6670447454e-05 2.9038553012e-06 1.9378978562e-05 -0.00015844917619 -6.5902527025e-05 9.588484473e-05 
4.9465832758e-05 -8.0445973354e-05 9.4007547601e-06 -0.00013147732884 -0.00015217502496 0.00016025724914 1.3894640589e-05 -0.0003028735672 -0.00011770055817 
-0.00021889070154 -4.2226656325e-05 -1.3977554813e-05 0.00010227075714 -1.3125088566e-05 -6.1633087105e-05 -0.00032033905991 -2.1245034112e-05 0.00012759030915 
-0.00026922310329 5.1064673288e-05 8.8648434786e-05 -1.0367747864e-06 1.9841409805e-05 -2.6512779832e-05 -1.3134077343e-05 -0.00010523550333 -0.00016144404192 
-0.00012244747499 6.5318561025e-06 0.00011795723584 -8.9660069504e-05 -0.00015757359613 6.7663561599e-05 -0.00018255429196 0.00010108978863 2.3690290254e-05 
-0.00024317638783 4.2096361033e-05 0.00018251024043 -6.1391082503e-05 0.00010574297281 -3.5515494632e-05 -1.2552592925e-05 7.9618280185e-06 2.8762083811e-05 
-0.00020115680367 -0.00024293232129 -2.7649017131e-05 -6.1290570784e-05 -0.00010609520485 -2.9199243014e-05 6.7155823679e-06 -0.00018961507024 -1.0960957349e-05 
-9.2343497707e-05 2.7477386309e-06 2.9642334752e-05 -0.00017445540409 -1.7556414617e-05 -8.8891051807e-05 0.00015297414825 -8.1518941051e-05 -5.3638236358e-05 
8.2999276636e-05 -0.00019891622965 -0.00027474687332 -0.00023992729504 -0.00026733712515 -0.000291075562 -0.00013857127617 -5.2348748649e-05 -9.4583722937e-06 
2.9157003845e-05 -4.2174982963e-05 -0.00032930324293 -0.00011126941304 1.8831006746e-12 4.9845776734e-05 4.243422766e-05 -5.5454811624e-05 -0.00021255946369 
-2.7221310915e-05 0.00023100778414 7.6312871322e-05 -0.00030396587893 -0.00013994475098 0.00012047489377 -8.7235324661e-06 -5.9566536307e-06 -0.00010622070854 
-0.00010299944174 -6.0141047585e-05 0.00018884849724 -0.00018989546713 -0.00018739511805 -1.5382042228e-05 -0.00011481614726 -4.7071164523e-05 -7.8646602053e-06 
0.00018159558853 4.9378045748e-05 -5.5955091573e-05 1.7371999284e-05 1.7030205929e-05 -7.2229999858e-05 -0.00011316490219 1.0594652842e-05 -6.3013080991e-05 