# vtk DataFile Version 4.1
vtk output
ASCII
DATASET UNSTRUCTURED_GRID
POINTS 1274 float
0.275427 -1.29272 -0.0530855 0.272827 -1.30178 0.0959427 0.322493 -1.28382 0.291072 
0.159841 -1.31541 -0.208676 0.305427 -1.24309 0.0970339 0.4158 -1.23271 -0.0653945 
0.382339 -1.29121 0.320349 0.489249 -1.22144 0.467279 0.512031 -1.23147 0.00127988 
0.63348 -1.2496 -0.00387337 0.540139 -1.34698 0.190646 0.640157 -1.21964 0.428505 
0.847023 -1.26815 -0.157064 0.847132 -1.24684 -0.0890789 0.659391 -1.28566 0.153508 
0.756773 -1.27407 0.26214 0.693884 -1.25077 0.212115 0.789047 -1.20082 -0.0379056 
0.646008 -1.19637 -0.0627133 0.671657 -1.34643 0.00739657 0.712448 -1.18759 -0.0811752 
0.68785 -1.29928 0.263252 0.5105 -1.22305 0.293045 0.615196 -1.26855 0.228955 
0.917439 -1.22895 -0.0850005 0.439469 -1.22794 0.102338 0.664452 -1.19361 0.357124 
0.892485 -1.16908 -0.0709881 0.92215 -1.31134 0.00227006 0.819744 -1.22867 0.0402447 
0.951894 -1.19598 0.00905202 0.657525 -1.22728 0.0480095 0.575616 -1.20282 0.372419 
1.09003 -1.21085 -0.275829 1.04238 -1.24193 -0.142694 0.586595 -1.20427 0.271914 
0.790578 -1.27773 -0.0131249 0.639431 -1.26184 0.287772 0.498439 -1.18622 0.11236 
0.920788 -1.17184 0.0694564 0.866617 -1.20991 -0.189634 0.789702 -1.21166 0.174386 
0.844189 -1.19967 0.115782 0.750756 -1.20596 0.232614 0.87546 -1.20493 -0.0097495 
0.978152 -1.21357 -0.258129 0.886168 -1.24552 0.294645 0.892227 -1.21016 0.233914 
0.468542 -1.29381 -0.301893 0.168099 -1.33168 0.280368 0.14417 -1.35834 -0.066001 
0.0370375 -1.33016 0.171982 0.288577 -1.34286 0.472353 0.255784 -1.33828 0.384575 
0.241306 -1.31336 0.165242 0.380515 -1.35342 0.285752 0.150756 -1.34799 -0.269782 
0.359362 -1.41001 0.0558691 0.614892 -1.28786 -0.213902 0.218465 -1.3535 -0.223639 
0.401768 -1.34739 -0.150894 0.372002 -1.35269 0.40277 0.397917 -1.29008 0.391056 
0.278688 -1.34816 0.208916 0.214263 -1.33757 0.0053684 0.476532 -1.24666 -0.183699 
0.414857 -1.36116 -0.0237312 0.5881 -1.34626 0.302539 0.430337 -1.2803 -0.142528 
0.357084 -1.23521 0.247683 0.551834 -1.36036 -0.0212789 0.420388 -1.25687 0.185809 
0.335789 -1.30012 0.0608343 0.344771 -1.26604 0.444103 0.518129 -1.23565 -0.075182 
0.623881 -1.4128 0.0998641 0.549027 -1.24521 -0.244883 0.22248 -1.27647 -0.218525 
0.570109 -1.35483 0.0443221 0.538986 -1.30081 -0.0314565 0.418435 -1.22096 0.237232 
0.458585 -1.27651 0.435564 0.580453 -1.33479 0.469452 0.450351 -1.27806 0.261769 
0.513094 -1.29056 0.295503 0.452296 -1.3607 0.113408 0.608135 -1.29754 -0.0465545 
0.637052 -1.22262 -0.202565 0.973633 -1.27774 -0.281138 0.572107 -1.2873 0.173999 
0.476085 -1.28053 -0.241803 0.764498 -1.28829 0.340532 0.647839 -1.32217 0.213034 
0.586471 -1.22354 -0.0455776 0.973792 -1.2507 -0.0324939 0.740297 -1.24995 -0.0572139 
0.685192 -1.29087 0.0497853 0.874026 -1.349 0.162259 0.602065 -1.25519 0.081487 
0.773532 -1.23122 0.386631 0.791286 -1.24089 0.465807 0.545778 -1.26637 0.243576 
0.821155 -1.35581 0.210429 0.617176 -1.21667 -0.141648 0.68528 -1.23069 -0.0308893 
0.562494 -1.23218 0.131893 0.732347 -1.23702 0.0210764 0.796823 -1.29794 0.182922 
0.82429 -1.24291 0.338051 0.684429 -1.25897 0.333789 0.812143 -1.2244 0.532537 
0.921698 -1.19795 -0.303907 0.758047 -1.30364 0.0483062 0.463167 -1.20993 0.187395 
0.769556 -1.18364 0.433214 1.16275 -1.21642 0.0194857 0.627402 -1.25193 0.53226 
0.738938 -1.22265 0.314299 0.704484 -1.23841 0.40463 0.578793 -1.22412 0.0235709 
0.954967 -1.28042 0.227147 1.11584 -1.24038 -0.179295 0.839673 -1.30379 0.0453992 
1.02715 -1.17522 -0.123886 0.908279 -1.28896 0.0660707 0.625504 -1.22163 0.139789 
1.23038 -1.18356 0.433421 0.737953 -1.24749 0.160894 0.934511 -1.22206 0.185862 
0.958975 -1.20161 0.428229 1.20435 -1.25672 -0.179432 0.904745 -1.22974 0.0995289 
1.02827 -1.22433 0.00279522 0.866787 -1.23185 0.172926 1.11899 -1.25511 -0.00476159 
0.96355 -1.26166 0.0368822 0.0867894 -1.41341 -0.246522 0.286308 -1.35958 -0.212095 
0.42979 -1.40919 -0.397629 0.0351675 -1.35987 0.313121 0.214338 -1.32095 0.482352 
0.0970542 -1.408 0.157353 0.21491 -1.34256 -0.402017 0.508337 -1.32019 -0.348307 
0.0879158 -1.35976 -0.381155 0.490337 -1.34565 0.461932 0.252156 -1.27901 0.529054 
0.150011 -1.35335 0.377067 0.241528 -1.41179 0.298011 0.0967875 -1.35796 -0.012022 
0.278275 -1.3198 -0.152298 0.0801401 -1.35885 -0.288911 0.474904 -1.35376 0.309571 
0.348742 -1.40768 -0.0294466 0.129698 -1.34366 0.23052 0.213836 -1.33464 0.0985791 
0.220102 -1.29501 0.29095 0.323267 -1.29069 -0.293434 0.271336 -1.34806 0.0408428 
0.422776 -1.31898 0.170222 0.0987024 -1.28725 0.200746 0.525034 -1.29322 0.416805 
0.89527 -1.29734 0.533048 0.545639 -1.35304 0.420324 0.242567 -1.29392 0.228631 
0.318665 -1.35504 0.156941 0.319693 -1.35459 0.092583 0.407952 -1.28501 -0.215563 
0.517944 -1.32811 -0.244203 0.498175 -1.2946 0.205537 0.523609 -1.21918 0.527676 
0.65028 -1.28643 0.414367 0.775942 -1.34532 0.453868 0.428508 -1.34484 0.232834 
0.677273 -1.41468 0.135903 0.601039 -1.21683 -0.399396 0.60242 -1.35852 0.188713 
0.831791 -1.21371 -0.323629 0.407046 -1.29627 -0.307018 0.828113 -1.29885 0.2849 
0.758296 -1.28862 0.421562 0.365749 -1.25959 -0.141805 0.578029 -1.27642 0.296703 
0.669717 -1.2692 -0.160789 0.498413 -1.24845 0.143936 0.877416 -1.29149 0.214208 
0.972255 -1.38903 0.0893139 0.534701 -1.27988 0.0567664 0.992062 -1.2538 0.447404 
0.656534 -1.3252 0.334197 0.933361 -1.29203 -0.067147 0.679089 -1.20279 -0.2523 
0.728307 -1.22608 -0.14286 0.791665 -1.3046 -0.0801111 0.819933 -1.35022 -0.0437338 
0.726618 -1.3079 0.179446 0.704512 -1.35441 0.13757 0.860966 -1.29723 -0.0248905 
1.00561 -1.24797 0.0978747 1.06297 -1.27139 0.0408239 0.913335 -1.24683 -0.147702 
0.784224 -1.28742 0.117213 1.09373 -1.25408 0.407201 1.00635 -1.24203 0.195412 
0.821562 -1.2388 0.233601 0.704477 -1.2529 0.106327 0.931554 -1.35941 0.218898 
0.854567 -1.28445 0.121853 1.19503 -1.35783 0.117375 0.947244 -1.35538 0.143452 
1.11945 -1.25651 -0.0863427 1.02149 -1.2557 0.280906 0.770659 -1.21851 0.102951 
0.990049 -1.33975 0.198164 0.297585 -1.4153 -0.35876 0.199501 -1.37216 -0.327211 
0.0322007 -1.4135 -0.0344129 0.441189 -1.2801 0.529899 0.0339827 -1.41171 0.191225 
0.0873619 -1.32267 -0.10764 0.342962 -1.30452 -0.394343 0.0369028 -1.36236 0.0214159 
0.0326476 -1.32878 0.51103 0.347025 -1.40639 0.198841 0.152247 -1.41314 0.444429 
0.323318 -1.34144 0.532516 0.088208 -1.39538 0.227186 0.32742 -1.35829 -0.264098 
0.217413 -1.35002 -0.129269 0.248588 -1.41429 -0.199691 0.126359 -1.33817 0.151779 
0.312235 -1.28843 0.497719 0.0915004 -1.33748 -0.219663 1.01058 -1.41418 0.471029 
0.234923 -1.40735 0.202557 0.218113 -1.34105 -0.0604628 0.400947 -1.35753 -0.281876 
0.151608 -1.32379 -0.00138744 0.582848 -1.41374 0.214779 0.469615 -1.4131 0.145075 
0.454061 -1.28825 0.338473 0.275216 -1.35667 0.32261 0.195829 -1.36254 0.158315 
0.312691 -1.34569 0.27011 0.799659 -1.41271 -0.228368 0.191054 -1.38765 0.264778 
0.357035 -1.34129 -0.0599803 0.161024 -1.30468 -0.122221 0.394734 -1.41526 -0.141497 
0.291262 -1.35372 -0.0869679 0.468239 -1.33943 0.395696 0.48984 -1.24617 0.380106 
0.298039 -1.35993 -0.0219339 0.360035 -1.34971 0.0160772 0.799302 -1.29518 -0.212364 
0.379497 -1.36154 0.15584 0.336559 -1.34518 -0.177574 0.352164 -1.29946 0.131263 
0.382068 -1.29401 0.25431 0.351452 -1.33241 0.209504 0.53676 -1.22838 0.422388 
0.451249 -1.29452 0.115 0.731537 -1.25579 -0.208831 1.05844 -1.36657 -0.147689 
0.311234 -1.3045 0.00429536 0.444349 -1.30467 -0.0192731 0.83316 -1.41477 -0.137023 
0.612277 -1.36148 -0.0106934 0.651804 -1.35728 0.268009 0.518362 -1.34345 0.253341 
0.542431 -1.25683 0.346194 1.14401 -1.36885 0.380806 0.627083 -1.36661 -0.0720812 
1.12853 -1.24951 -0.243186 0.72555 -1.29297 -0.112399 0.852981 -1.3194 -0.107571 
0.686556 -1.36329 -0.0518889 0.747717 -1.34095 -0.00753844 0.895413 -1.35416 -0.0560825 
1.04921 -1.23397 0.468085 0.635945 -1.31499 0.0924559 0.83973 -1.41501 0.254806 
0.64501 -1.2542 -0.0930266 0.895314 -1.35437 0.0903231 1.10019 -1.31957 0.00755946 
1.01085 -1.31016 0.0141583 0.810223 -1.36759 0.0457482 0.75451 -1.33918 0.099922 
0.696257 -1.29605 -0.0321778 1.0495 -1.35145 0.161164 0.855206 -1.41217 0.0903633 
1.11573 -1.19981 0.373191 0.995164 -1.27792 -0.0927533 1.09894 -1.40835 0.178148 
0.96994 -1.34101 -0.0335613 0.973179 -1.31658 0.0864531 0.899754 -1.18827 0.466317 
0.0341707 -1.3776 -0.2274 0.0314946 -1.4142 -0.172946 0.0354905 -1.41021 0.468061 
0.0731357 -1.41425 0.306817 0.0854566 -1.37154 0.528368 0.100005 -1.41553 0.479069 
0.0769072 -1.41064 -0.3391 0.166923 -1.39488 -0.394951 0.384262 -1.36044 -0.403687 
0.0336256 -1.41208 -0.285779 0.0521959 -1.41294 0.0668024 0.265637 -1.4091 0.471085 
0.0356826 -1.41055 0.363062 0.240039 -1.4087 0.370197 0.144314 -1.41182 0.530538 
0.305442 -1.35474 -0.331689 0.142843 -1.41429 -0.331472 0.145876 -1.41471 -0.269143 
0.640484 -1.41013 -0.320534 0.424389 -1.41293 -0.237128 0.116764 -1.41367 0.0615782 
0.100469 -1.34463 0.420247 0.392439 -1.33176 0.529312 0.109623 -1.3522 0.314892 
0.502985 -1.4062 0.400088 0.174953 -1.37131 0.0544326 0.310033 -1.40789 -0.168363 
0.292736 -1.41419 0.0895845 0.209964 -1.40889 -0.0930572 0.357472 -1.34815 0.46826 
0.316377 -1.3217 0.415321 0.292048 -1.40986 0.24996 0.711965 -1.34938 0.520544 
0.20829 -1.35194 0.330553 0.413765 -1.34961 0.349351 0.453078 -1.34815 -0.224907 
0.383136 -1.35536 -0.217868 0.0659893 -1.35889 0.109561 0.455578 -1.40706 -0.173168 
0.244039 -1.35227 0.267445 0.264597 -1.35815 0.128499 0.423113 -1.35217 0.450131 
0.339579 -1.31968 -0.120848 0.45765 -1.41043 0.0494795 0.635327 -1.27282 -0.367003 
0.530811 -1.28992 -0.292203 0.569287 -1.41475 0.0645931 0.52217 -1.28543 0.48832 
0.648741 -1.41098 0.224664 0.551703 -1.35189 -0.295192 0.457056 -1.41397 0.209401 
0.6793 -1.35908 0.390823 1.0742 -1.29021 -0.270838 0.465476 -1.28518 -0.0826784 
0.427145 -1.34086 -0.0844255 0.502157 -1.32673 0.0152172 0.438502 -1.34175 0.0382061 
0.531476 -1.32852 0.354659 0.578751 -1.29287 0.53432 0.942598 -1.24953 0.531367 
[...]
POINT_DATA 1274
FIELD FieldData 10
VELOCITY 3 1274 double
0.036359302138 -0.0027736548514 -0.018944856213 0.0086779349139 -0.016821505971 0.0061349729991 -0.063434602532 -0.011137884181 0.066408773568 
-0.041631381209 -0.024719458298 -0.050200504081 -0.17069889294 0.077681163748 0.28014252993 -0.032272313767 0.013171227132 -0.14132487791 
-0.01542028776 0.018665690075 0.022734015865 -0.076077993106 0.00011217659395 0.043333309901 -0.033218210122 -0.023583730002 -0.082044802338 
-0.03073557593 0.0048798114136 -0.01403271816 -0.0041294322777 0.0028453950084 -0.0043668812875 -0.047705410663 0.02153969987 -0.043209869854 
0.12800664297 -0.08252167786 0.16460253961 -0.021838918419 -0.087764714445 0.1735347707 -0.079085674969 -0.081934830879 0.081732651744 
-0.0090951240146 -0.055647146669 -0.022468866929 -0.050806335506 -0.11105095878 0.082950936901 0.23574623616 -0.18261912127 -0.17102822257 
-0.055249101298 -0.042778986455 -0.051266417826 0.016915285979 -0.004115185113 0.0086614165262 -0.051696985633 -0.071114015972 -0.052593804884 
0.043820490569 -0.11771852315 0.085806555335 -0.65750672833 -0.058706544014 0.10000726225 -0.032702658251 -0.026959131104 -0.071972917611 
0.078025464763 -0.10567176983 -0.031009353303 -0.56309913116 -0.49178173785 0.1622879118 -0.42701318982 -0.26607459557 0.075387782511 
-0.42056993744 -0.25516969517 -0.18285685804 0.02399672043 -0.016546926757 -0.071351952105 0.024757826614 -0.050007831096 0.027388023945 
0.029112661822 -0.049323698783 -0.013488251284 -0.018847767624 0.087507395263 -0.067341237592 -0.19742288287 -0.3382671192 -0.17077348644 
-0.071991989438 -0.47546938968 -0.85271370839 0.066259289648 0.054520370064 0.0032768922764 -0.48452266353 0.1208749778 0.11223949269 
0.024108582867 -0.011365525161 -0.0084527111877 -0.048272386102 -0.14050317318 -0.057152456711 -0.50500524964 -0.28663521515 -0.34078442719 
-0.073218070486 -0.078721962598 -0.017347087579 -0.1253446777 -0.0073415648983 -0.23009519733 0.018068543676 0.01024868727 -0.069213041037 
-0.067285828453 -0.12230706066 -0.056564273464 -0.39384098451 -0.17527663533 -0.24751320698 0.039750681698 -0.79404095086 -0.39838908273 
-0.10301421344 -0.016097396505 -0.018779193454 0.061790375782 -0.070178765467 -0.048344180589 0.026243075767 0.016071173681 -0.0029801664337 
-0.14814217731 -0.036169004009 -0.016907074426 -0.0034895635914 -0.0041852980905 0.00029859869242 -0.00338184672 0.0059879238646 -0.008948636043 
2.3651795907e-06 -0.021216208213 0.0091586727085 -0.0087705510386 0.0027649003271 -0.0015616358396 -0.00086810844443 0.00054240208508 0.0002312656009 
-0.0075143651 0.0047045451838 -0.0015698834586 -0.0077652018425 0.0052456873052 -0.016246543666 0.046911392099 -0.0048072882714 -0.073859265001 
-0.012773708088 -0.00017006059728 -0.0011836837324 -0.026804121191 -0.018959605748 -0.004422640906 -0.010180062066 0.003284255138 0.00043092768036 
-0.029073265856 0.0038077873361 0.0028720519986 -0.009321741147 -0.012276313411 0.006084832742 -0.032390374288 0.0012515577986 0.026888701114 
-0.0068658760053 0.0025170578054 -0.0040903679585 -0.007125417492 0.0017840031505 -0.0071008196491 0.11874387111 -0.23282032523 0.0040015537495 
-0.01544774768 0.0021635918647 -0.001606034754 -0.0072241134332 0.0097319423037 0.0057833169018 -0.044761606649 0.0097011852849 0.019469977621 
-0.4090060919 -0.12965623435 -0.0907818556 0.018108229199 -0.0055894500008 0.0066275387321 -0.17088613482 -0.016209983256 0.082489192234 
-0.010077322112 0.011724719091 0.0048245060179 -0.1034956823 0.046603634549 0.0083875244406 -0.05730872094 0.071832230564 -0.0881764967 
-0.0043699296151 0.00074671222787 -0.001293039716 -0.16994325307 -0.021868129072 0.038359274875 -0.051714428008 0.0068952431085 -0.019421122092 
-0.01717074825 -0.017496482107 -0.051587305145 0.010384684828 -0.01495695241 -0.039064344095 -0.35855663582 -0.1060863748 0.1389360011 
-0.052195910635 -0.038490922133 0.073312004373 -0.0028864373256 0.017919054355 0.0089060852645 -0.069145656505 0.006490423055 0.016670569917 
-0.071984762986 -0.039671165569 0.0064813173374 0.00020330350461 -0.0021716346122 -0.022233744329 0.07340572439 -0.054290801186 -0.0098320146105 
-0.045502769351 -0.0076041672875 -0.031990897529 0.023894147213 -0.033037444873 -0.0074337028389 0.0021912458044 0.00065928091259 -0.0010849775777 
-0.26119182196 -0.28172093193 0.033118391341 -0.031518688032 -0.012774892841 -0.0029244804323 -0.029911276316 -0.057900459922 0.10288100772 
-0.041721850662 -0.088971463603 -0.053277034077 0.14640377343 -0.05767005068 0.023440010428 0.0074828730568 -0.024024552471 0.0018211856758 
0.0146192316 -0.00056922725695 0.0068055342579 0.014858607757 0.0086610889296 0.012000560448 0.015019634883 0.015727879038 0.0065725565937 
0.075604551449 -0.037889616157 0.012751318542 0.018113996283 0.011980416965 -0.026572372118 -0.12906579642 0.097872934203 0.035235377331 
0.068595532847 -0.027501665363 -0.076968827283 0.034572153495 -0.1444386752 0.0083092407914 -0.043012308847 -0.055778602739 -0.080392641112 
-0.10920039114 -0.15231830918 -0.010146304234 -0.026770326344 -0.01534214478 -0.090254031944 0.086162956243 -0.0018661005359 -0.061889146649 
0.058199460945 -0.13071276136 -0.0470596006 0.014274096004 -0.1123986133 0.0080277963811 -0.058622348852 0.030769349648 -0.0023204242509 
0.1420006344 -0.39182562872 -0.48903091059 0.1068391843 -0.013082816248 -0.004298522572 -0.15935627975 -0.026332259124 0.069458240577 
-0.29614248713 -0.082976797289 0.014353818829 0.079029219157 -0.010846194162 0.0023976869159 0.26748830502 -0.2528461329 0.39010946382 
-0.052732639743 -0.029255042978 -0.028124060125 0.0609028699 -0.013663268745 0.06638429303 -0.034236305653 -0.10605353963 -0.045635115313 
0.034985865006 -0.11770153227 -0.084231712548 0.014710053381 -0.0169913184 -0.025436113123 0.056506744202 -0.045662578365 -0.04092257085 
-0.046021222413 0.022286365913 0.026117543339 0.043525370364 -0.0072555333296 -0.027180085945 -0.097394887512 -0.11219568556 0.12656277515 
0.1141289785 -0.043582800906 0.25670784257 -0.076929870129 -0.00034013473125 0.058544699946 0.067401671636 -0.007063015445 0.037739699797 
-0.026571367203 -0.040809379858 0.0011862969198 0.099406882399 -0.071415904385 -0.052181839409 -0.0045893392445 -0.058411220247 0.058673959091 
0.23119292703 -0.06935851452 -0.099590132721 -0.015789973412 0.0095585020424 -0.0027940886955 0.01348754398 -0.00020824031663 -0.051095718186 
0.096402873451 0.0019427793336 0.080998562395 -0.00055941489543 -0.00010010229085 0.0011879696185 -0.010320706867 -0.0008790266265 -0.0010762414103 
0.00093843719103 0.00033312570404 0.00043166990657 0.0002095918007 0.002895053332 0.0096112102667 -0.0019605871164 -0.00012364560953 0.00020099154604 
-0.0020261581059 -0.0013907927596 -0.00054431895641 -0.00037735624026 -0.0003437371724 -8.2037518573e-05 -0.085721953331 0.016240598395 0.0068994586082 
-0.11733222472 -0.010740389261 -0.043329474031 0.025826703454 -0.012616897937 -0.00051593885985 -0.0038166363854 -0.00028090972912 0.0013169778541 
-0.018125054096 -0.0051127972026 0.015430133433 -0.0038866825866 0.00046138712228 -0.0019846127667 -0.0048259144795 -0.0023150633872 -0.010269939813 
-0.037051472806 0.022837319202 -0.070583279931 -0.00045490239217 -0.00048689066548 0.00080149937649 -0.0051404599211 -0.0095530391533 0.0092376446961 
-0.00019195794503 0.0005723107681 -0.003488675464 -0.002525980544 0.0025593888741 -0.0021399467924 -0.0072140647614 0.0043825352397 0.003618715783 
-0.007819926507 0.0010926885264 0.003038455467 -0.025250322004 -0.0041421498037 0.0026127538091 -0.0069261236835 -0.0001993926513 -0.0072992616923 
-0.0060060243372 0.011993838972 -0.011536912457 -0.28094933715 -0.15091165363 -0.017130561031 -0.046344786478 -0.058890659909 0.013773771273 
-0.025560907047 0.025589150068 -1.0266866609e-05 0.058185100042 -0.025345636839 -0.018319367791 0.0067975032049 0.0074959464207 0.0082760724954 
-0.0052508502561 0.0028016560865 -0.0042761317234 -0.0099479416201 0.004556289483 -0.0039476359382 -0.43902141899 -0.32800941974 0.012341460983 
0.027634824857 -0.070958363394 0.067424124355 -0.074160875414 0.05146436774 -0.00065806922217 0.011638116772 0.023518352993 -0.0021094682582 
-0.017589354454 -0.0060189275604 0.0039196138944 0.043102511289 0.032496524449 0.044357572349 -0.022005489672 0.0048163517674 -0.013155896811 
0.0025663801762 7.6111034651e-05 0.0030015883821 0.010511599509 -0.058438680741 0.0001889590314 -0.0047107020642 -0.0046164834085 0.01108465783 
0.078407566622 -0.12532285085 0.14864873581 -0.15072191696 -0.012938582511 -0.0080358735396 0.0044514214646 -0.011217905504 -0.041551725394 
0.016577845317 -0.025581576868 0.0088988874065 -0.36542066888 -0.66668542206 -0.35319328844 -0.10328832964 -0.001837991625 0.0015792919861 
0.0017012247023 0.0056873877387 -0.054450824167 -0.1149487199 -0.032564635789 0.13128069632 9.4364412194e-05 0.017515970467 0.0047416508308 
-0.023608695553 0.0095205336651 -0.037074048737 0.030475476546 0.0078080789057 -0.031049479456 0.012417226157 -0.015878112768 0.0023390829168 
-0.020644067095 -0.077690166766 0.089508097411 0.14590551728 -0.07918240536 0.032623807229 -0.10219887884 0.017830885044 -0.14309294617 
0.028996322783 -0.022212471636 -0.062250593027 -0.014887427398 0.015846073979 -0.027851430361 -0.017670040536 0.010018787672 -0.027202905924 
0.069630827202 -0.044202610334 0.018866100463 0.010785807025 0.013126967268 -0.003319057896 0.015781330242 -0.015934578439 -0.052555011211 
-0.0086449239972 0.0062014259562 -0.058737070184 0.014196722386 -0.078511138931 0.086916053762 -0.12091248016 -0.049924345105 -0.042230050938 
0.05982459921 0.021289353171 -0.089856476381 0.19740363067 -0.19980210694 0.0020554757747 -0.0053664262499 0.02379005555 0.020172016349 
-0.047770783104 -0.015119674966 -0.043336424891 -0.10330500363 -0.05099584049 0.081967879892 0.022691520139 -0.0056759987394 -0.043604581582 
0.055893488147 0.0048017906166 -0.01579642906 0.015222010497 -0.0039221753481 -0.0083354453255 0.0049545165155 0.0056023327525 -0.021002465049 
0.085071793219 -0.0060622940335 -0.05988587354 0.091396092854 -0.065939078309 0.00073366408635 -0.069506825856 -0.12762110939 -0.033644721005 
0.018410096261 0.005188827727 -0.027362384899 -0.00069329091217 0.00055808707359 -0.0014160251673 -0.002503625623 0.00098545378111 -0.00090001985327 
0.00011024454024 8.8142206849e-06 0.00016787197924 -0.0035429502817 0.0013784342604 -0.016151492799 -0.0001913127497 -0.00038902152795 0.00053940054281 
-0.014047147615 0.016703612256 0.0067695905032 -0.0017654719226 -0.0026961233427 0.01816341613 -0.00010958697615 -0.00038212945614 -0.0011347142664 
0.00015069995563 -0.040516810612 -0.10757013223 -0.0010930989351 0.00057845282028 0.0005550388924 -0.00084140787541 -0.00021046927555 8.3939786289e-05 
0.0091393054019 -0.092039476807 2.3787855096e-06 -0.0018055454422 0.0014369592358 0.0026859505552 -0.012050408025 -0.0055322262433 -0.002182267632 
-0.0057580757538 0.0059666466325 -0.0071207704849 0.00062248255284 1.4937299645e-12 -0.0040186908736 0.00015504374191 -0.005567730511 -0.012067481493 
0.016650101687 -0.037932669139 0.061097702159 -5.3586954388e-05 0.00079960506893 0.00042517523584 -0.037736753977 0.00045525180028 0.0065967288215 
-0.0046422245613 0.00025939405198 -0.0026691617874 0.016016136564 -0.0023662447619 -0.0056462185589 0.022965309783 -0.0063535459686 -0.0041164661687 
-0.007847498946 0.0020924136812 -0.0064693482239 0.0042825398351 0.00012576694099 0.0032575724852 -0.00056964080462 0.0064044212366 3.5476814281e-05 
-0.029302602235 -0.016001447851 0.010146715495 -0.0064303341664 -0.0010204900293 -0.00074192671971 -0.00048936342988 -0.0019134813087 0.0026291303084 
-0.010682011173 0.0037684892889 -0.0023829645006 0.0073393509526 -0.00095407223931 0.011403922835 -0.0052687707793 0.0033919104462 0.0017149441463 
-0.029537466653 -0.015003313707 -0.04576175093 -0.0083654407292 0.0013204373157 0.012090117395 -0.00030621702503 -0.0003455586789 -0.0033898051364 
0.036103224006 -0.0086083009137 -0.0084698341229 -0.034341430112 -0.0072699425279 0.010348227357 -0.072391522993 -0.028799536214 0.057859482714 
-0.0027776769066 0.00014398281142 -2.3088408404e-06 -0.015177147867 0.00067972903023 0.00044944747033 -0.024318914876 0.015319305589 0.032110900271 
-0.002586396842 0.0021859853951 -0.0017268003272 -0.031027015005 0.0066402629023 -0.044037912347 -0.002249480499 0.0045012013545 0.0030414345015 
-0.075085819227 0.02457471745 0.022374120887 -0.041485477537 0.0019274879111 0.017572440738 -0.065634954712 -0.037663084345 0.045860902188 
-0.045323898278 0.00012433930102 -0.039575569952 0.13828943119 -0.074477485408 -0.033289148816 0.0032446169082 -0.0042060282957 -0.00052294768619 
0.033440178055 6.8926452387e-05 -0.015541619233 -0.010690428079 -0.0016573870524 -0.00028378886662 0.014572120022 -0.00038395895148 4.0657812463e-06 
0.016052310036 -0.0045668785778 0.012675295847 0.021808347365 -0.073468823343 0.086853556884 -0.046366424197 -0.013443623109 -0.022931204668 
-0.10606496493 -0.035562208506 0.014315772593 0.037215112279 -0.0071201985404 -0.0074481499906 -0.00064243015415 -0.0015849905959 0.0068788372384 
-0.037569409213 -0.00055276406059 -0.038049325701 0.025829626027 -0.0029670466655 -0.019966557544 0.030414205789 -0.056477771811 0.066573958405 
0.001509725655 -0.014080800098 0.0010297288957 0.0083701663321 -0.00030098609425 0.0050495436028 0.099684745744 -0.070271670915 0.11776451157 
-0.11582832745 -0.0003506783776 0.054115597731 0.022147371019 0.0095627396123 -0.0003364828287 0.0055054818316 0.00095690101933 -0.028666909654 
0.12408309342 -0.077474423539 0.0088407884942 0.003514656153 0.00090023816033 -0.024215709637 -0.0032542550815 0.0046282020644 -0.052788614172 
0.020341407521 -0.0015169418933 -0.074415901751 0.003942115464 -0.020421072814 0.031364841667 0.019550815744 0.011667200974 0.0071742330646 
-0.0050743286894 -0.0095155015211 0.010320774151 0.0027494385032 0.01035669128 -0.053972736655 0.0035582417693 0.00032637609547 0.0013649494438 
0.10114800824 0.0014603386953 0.26000400083 0.019751538226 0.006701097525 -0.25649716499 -0.012634230371 0.0003499118974 -0.039744451322 
0.054976167477 -0.079693023097 -0.042846186381 -0.045346036315 0.01669548709 -0.037016429457 -0.02936046549 -0.046207235066 -0.0011563008407 
-0.00011367866507 0.00084314345734 0.0003304457343 -2.1260871815e-05 6.5112428983e-05 -0.00016122593567 6.2754988696e-05 -0.00010686420663 -0.0023929625684 
-0.0038114349214 0.00025667495839 0.0030678716257 -0.0020348189451 9.2260781116e-05 1.6875578643e-06 -0.00036010678234 0.00013313601767 0.0007915730676 
-0.00093451376825 -1.6089006084e-05 0.00021019104103 -0.0010797448603 0.00013056535709 -0.00030127856308 0.0016640177721 0.0020998904954 0.00095450561409 
-0.00024314381738 -6.5596397587e-06 0.00065336384076 -0.00025069091811 0.0003295716346 0.0009887262045 -0.0021978332946 0.0001120212639 -0.00086545845183 
-0.0016423286433 -4.5868042257e-10 -0.00019410397505 -0.0001717426245 0.00015842972458 0.00021786448362 -0.00155840363 0.00011596009825 -0.001947495534 
-0.036063546183 0.0013540456025 0.006275514799 -0.0011087759134 -4.0956409997e-06 -0.00045777698978 -0.0012225337101 -0.00053650395468 -0.00077446375678 
-0.0010449196605 0.00025325397247 0.0017564483526 -0.00039669914679 -0.00055298677958 -0.0010803041077 -0.00055128495621 -0.00022827442696 -0.00096960918949 
-0.019139158259 0.004094337694 0.012276924513 -0.0017630646797 -0.00112580077 0.00037269580519 0.00056054122687 0.0011462858526 0.0033834518566 
0.0096770909371 0.0048694385109 -0.001697635139 0.015560888944 -0.010839993194 -0.0034759932087 -0.0019428726459 0.00019353102879 -0.0038123428647 
-0.002069512824 -9.0480366933e-05 -0.002616790011 0.00037918158989 0.00032600503048 -0.0017331920836 -0.0094041878973 -0.0018816918425 0.0049499906465 
-0.0022626434058 -0.0018464373403 0.0016367047655 -0.0022404221147 0.00016846075009 -0.0004177271328 0.012794887531 -0.0167213228 -0.065428014526 
-0.0057591812526 0.0014730488781 0.0044954579938 -0.027270715685 -0.0094030177237 -0.003872382606 0.010547634605 -0.018145058243 0.066577021532 
0.00084778150705 -0.00045940039373 -0.0075915997432 0.0012555840869 0.00045988996404 -0.00014164242889 -0.00026978564569 -0.0014261643215 -0.0003992324509 
-0.0036213410895 0.00084081954909 -0.0019157985177 -0.010812199795 -0.0021726872098 0.0048171069204 0.0031153663836 0.015412256577 0.045699421899 
-0.05481638222 -0.0079502661165 -0.036182237952 -0.0012525956232 0.00080613546182 0.0012461735687 -0.027728955012 -0.063277592046 0.024285848921 
-0.016837480127 -0.085122484259 0.03535920127 -0.0026357251351 -1.0614204598e-05 0.0013320410576 -0.0086112618475 -0.00034105655423 0.014931762377 
-0.0029691634765 -0.00082196589517 0.0040228565021 -0.011284638583 -0.014384563099 0.014182626677 0.00056017906754 -0.00028143895787 -0.0031450420638 
0.071153916233 -0.068617109248 0.054706120915 -0.0080588669507 -0.0017740457266 0.020349445094 -0.01559029398 0.0094041369362 0.0043814624674 
-0.0076296126102 0.0015236481112 -0.0027171019393 -0.0067576545936 0.0020679577213 0.0026975209534 -0.0072605767418 0.00065545842598 -0.0021048394593 
0.012879418317 -0.021323891041 -0.0073520155361 -7.2439449318e-05 -0.011162956367 0.055472549311 -0.030328570584 0.047672054706 -0.0014473989574 
0.020711091322 0.00026901049972 0.014870476112 -0.0084661957085 0.0040087915561 -0.035287262323 -0.025696454082 0.012207830433 -0.035214674866 
0.00010373629098 -0.0018011256879 0.0061278630493 -0.0035937830103 -0.0027432954734 -0.0099027168843 -0.040084997275 -0.012764020806 0.0007799706282 
-0.0068771587786 0.0099985581062 0.013400176796 0.0042618172593 -0.00012459669821 0.016126170097 -0.00354637183 -0.0013144418193 -0.0073128564772 
-0.0057511875584 -0.004487372558 0.037082075678 -0.020853629377 -0.021225173919 -0.0033798558517 0.0077763611121 0.00023567281789 0.0082649978815 
-0.031663434858 0.055334874243 -0.058819807387 -0.17405420408 -0.36467517937 0.00045229741114 0.034338067487 0.00070242991617 -0.015211953491 
0.13583521145 0.013110051413 -0.00421090603 -0.060953990171 -0.04837987457 0.00030539761775 -0.0078373709202 -0.0054875318362 0.0087122053283 
0.0067457215723 0.011849222437 -0.066397782491 0.023492910875 -4.5089004459e-12 -0.0034095707883 0.018342303442 -0.018528924997 0.057633069907 
0.017464640159 0.00066239898343 0.011104376917 -0.049651594209 0.01182888595 0.03600938619 0.0010072233187 -0.024197687292 -0.00094700252419 
-0.013088394094 -0.02133476792 0.0075016898753 -0.082891616705 -0.027941469248 0.019738319616 0.005805372678 -0.016844597402 -0.040123704127 
0.044293467213 -0.14044044157 -0.057075491009 0.043715859391 0.00017136659085 -0.037431194286 0.021113826757 -0.0062609918212 -0.026569932112 
-1.2838243698e-05 2.1493929486e-05 0.00049492517112 0.042923194547 -0.0025753987758 0.011577064097 -0.0016685073912 -0.00061173506112 -0.00051764508119 
-3.3065634525e-05 -0.00094162229954 0.0011079268964 0.0014020168417 -7.3172909994e-12 -0.0019973760536 -0.0028855272447 0.00029935627802 0.00025614634109 
0.00034510846236 0.00027169473422 0.0011566860571 -0.0018228429021 -0.0007757997665 0.00026168615642 -0.0031350803464 6.3880720308e-12 0.00087228248659 
0.00062111333991 0.00077358045661 -0.001561677834 0.00019655995006 -0.00012078904746 -0.0008665439254 0.00089313506737 -2.3499054058e-05 0.0008279862942 
-0.001214654841 -0.00010379677559 -0.0020196248471 -0.0025649597516 -3.5775338996e-05 0.0028520176692 0.0011941006503 -0.00014828213463 0.00024193161854 
0.00095018512607 -3.0480884307e-14 -0.00057859356346 0.016891811547 -0.0050766558009 8.3929388129e-07 -0.0014350902249 -0.00058002981533 -0.0011354124758 
0.00063851751762 -0.00017788546578 0.00013704199117 -0.0017053895008 0.00013717622948 -0.0010406049282 -0.00051593710592 -6.1110242479e-05 0.00034192038577 
-0.0041932672345 -2.4523845513e-05 0.0017422495153 -0.0034444418404 3.1468679589e-06 0.0034665673046 -0.002134092732 8.6685386336e-12 -5.6879101303e-05 