# vtk DataFile Version 4.1
vtk output
ASCII
DATASET UNSTRUCTURED_GRID
POINTS 1274 float
0.273687 -1.29447 -0.0533575 0.27359 -1.30218 0.0959143 0.279298 -1.29497 0.317618 
0.157809 -1.31606 -0.211024 0.298392 -1.29137 0.178184 0.411463 -1.23448 -0.0669229 
0.381258 -1.29112 0.322115 0.469864 -1.23548 0.492913 0.512114 -1.24362 -0.00819247 
0.637052 -1.25342 -0.00572755 0.538787 -1.34669 0.187558 0.641084 -1.22283 0.434192 
0.852385 -1.27266 -0.151188 0.843389 -1.25444 -0.0829436 0.657644 -1.29639 0.158099 
0.755458 -1.27582 0.265837 0.696177 -1.27023 0.218697 0.793625 -1.20802 -0.0449289 
0.637039 -1.20771 -0.0561872 0.672358 -1.34643 0.00781052 0.715456 -1.1908 -0.0822012 
0.69075 -1.30819 0.278139 0.391037 -1.23458 0.281925 0.61513 -1.27214 0.224819 
0.912737 -1.23671 -0.0763139 0.300989 -1.2505 0.128447 0.657493 -1.20797 0.363633 
0.813885 -1.19504 -0.113199 0.921167 -1.31396 -0.000243465 0.822615 -1.22939 0.0380069 
0.971577 -1.20861 -0.0148751 0.656926 -1.22805 0.0465196 0.557418 -1.21912 0.378501 
1.08242 -1.223 -0.287915 1.03374 -1.24152 -0.141551 0.504037 -1.22148 0.280698 
0.789768 -1.27895 -0.0127014 0.634868 -1.274 0.285644 0.405168 -1.2508 0.137754 
0.952164 -1.2029 0.0596463 0.851301 -1.22709 -0.208417 0.798079 -1.23313 0.160124 
0.838053 -1.21215 0.108743 0.748426 -1.22105 0.215889 0.90324 -1.24345 -0.00504484 
0.985415 -1.2384 -0.236405 0.891718 -1.25249 0.29164 0.886354 -1.21797 0.230366 
0.451837 -1.29942 -0.306774 0.167778 -1.33263 0.280767 0.145326 -1.35896 -0.0654425 
0.0370367 -1.33503 0.173759 0.286231 -1.34237 0.471555 0.255777 -1.33813 0.385022 
0.239785 -1.31343 0.165068 0.379541 -1.35342 0.285067 0.153437 -1.34835 -0.272803 
0.359495 -1.41001 0.0556837 0.611693 -1.2894 -0.213167 0.217746 -1.35347 -0.221985 
0.399446 -1.34727 -0.151214 0.37149 -1.35529 0.404716 0.39896 -1.29307 0.394597 
0.27804 -1.34832 0.208962 0.213309 -1.33857 0.00558755 0.48502 -1.26631 -0.187318 
0.413071 -1.3608 -0.0237094 0.583368 -1.34513 0.299898 0.433098 -1.28262 -0.142613 
0.304036 -1.2841 0.24316 0.552634 -1.36021 -0.0192753 0.37655 -1.27372 0.194388 
0.3314 -1.29843 0.061728 0.330387 -1.26186 0.445481 0.508659 -1.22755 -0.0835043 
0.62345 -1.4128 0.0996699 0.543719 -1.25129 -0.240604 0.212485 -1.28192 -0.175283 
0.568459 -1.35594 0.041685 0.541692 -1.30123 -0.0339731 0.327813 -1.26214 0.297883 
0.451148 -1.28851 0.450275 0.579727 -1.33509 0.469959 0.446519 -1.28101 0.264256 
0.511108 -1.29968 0.290916 0.451851 -1.36116 0.112095 0.615935 -1.30382 -0.0478732 
0.643956 -1.22747 -0.213995 0.972746 -1.28525 -0.284443 0.570447 -1.2865 0.172197 
0.474731 -1.28627 -0.250696 0.764534 -1.28926 0.343901 0.645438 -1.32735 0.220652 
0.577118 -1.239 -0.0539755 0.999427 -1.2667 -0.0442739 0.74167 -1.25491 -0.0612068 
0.684787 -1.2904 0.0493981 0.876644 -1.34922 0.162165 0.603198 -1.25474 0.0796205 
0.780212 -1.23222 0.388016 0.790553 -1.24153 0.464768 0.545553 -1.26312 0.232711 
0.825959 -1.35955 0.20764 0.62195 -1.22536 -0.14486 0.687867 -1.23271 -0.03329 
0.553113 -1.24099 0.12365 0.732385 -1.23673 0.0210954 0.808427 -1.30049 0.1779 
0.828869 -1.25062 0.340849 0.681262 -1.26714 0.329724 0.809154 -1.22666 0.532537 
0.912676 -1.2475 -0.36956 0.769507 -1.31012 0.049028 0.437557 -1.25608 0.1926 
0.723889 -1.22675 0.535002 1.1636 -1.22127 0.011632 0.628891 -1.26642 0.530062 
0.734231 -1.22569 0.317609 0.704865 -1.24504 0.415679 0.578895 -1.24361 0.0152254 
0.958779 -1.29304 0.219246 1.1058 -1.23868 -0.16726 0.838853 -1.30532 0.0441585 
0.976788 -1.22615 -0.0922633 0.90815 -1.28984 0.0618245 0.616192 -1.23689 0.147351 
1.32157 -1.19725 0.526029 0.738723 -1.2565 0.160919 0.939919 -1.22548 0.194133 
0.952014 -1.20847 0.42305 1.21206 -1.26369 -0.182973 0.905017 -1.232 0.0976574 
1.04491 -1.22604 -0.00808121 0.8639 -1.23349 0.171961 1.10031 -1.2584 -0.032495 
0.963297 -1.26315 0.0318414 0.0866531 -1.41341 -0.246685 0.285886 -1.36066 -0.213153 
0.430077 -1.40919 -0.397639 0.0351688 -1.35953 0.315623 0.213212 -1.3212 0.482541 
0.0966061 -1.40799 0.156589 0.216665 -1.34411 -0.402017 0.500287 -1.31852 -0.348268 
0.0870802 -1.35982 -0.381535 0.493622 -1.3476 0.459639 0.250992 -1.27903 0.529061 
0.147233 -1.35436 0.379513 0.241002 -1.41179 0.297792 0.096605 -1.35824 -0.0126696 
0.276938 -1.32019 -0.156474 0.0800767 -1.3588 -0.28902 0.471997 -1.35384 0.309842 
0.348572 -1.40768 -0.0292181 0.129577 -1.34342 0.230496 0.213157 -1.33468 0.0980641 
0.219509 -1.29567 0.291497 0.320396 -1.29145 -0.294907 0.270917 -1.34801 0.040486 
0.422384 -1.31826 0.166057 0.0824367 -1.29269 0.215244 0.515779 -1.30069 0.41895 
0.893108 -1.30022 0.533049 0.547058 -1.35579 0.420332 0.240703 -1.29492 0.228729 
0.318093 -1.35522 0.157046 0.318811 -1.35427 0.0926873 0.366958 -1.28851 -0.232306 
0.520294 -1.33304 -0.241324 0.492526 -1.2928 0.204126 0.548574 -1.2259 0.527673 
0.644495 -1.28724 0.408199 0.776733 -1.34072 0.462302 0.423602 -1.34423 0.228875 
0.676785 -1.41468 0.136509 0.589185 -1.2228 -0.399396 0.601054 -1.35843 0.188456 
0.854238 -1.22714 -0.316148 0.390797 -1.29517 -0.298402 0.828404 -1.29981 0.283798 
0.759019 -1.28957 0.419788 0.332638 -1.28437 -0.171984 0.571273 -1.27629 0.288646 
0.670117 -1.2728 -0.166634 0.490131 -1.2497 0.14541 0.879542 -1.29186 0.214305 
0.97029 -1.38754 0.0887647 0.535618 -1.28036 0.056482 0.995212 -1.25537 0.443792 
0.648728 -1.33019 0.341107 0.941796 -1.2961 -0.0630648 0.671476 -1.21083 -0.283759 
0.725588 -1.22909 -0.145201 0.791252 -1.3042 -0.080725 0.820965 -1.34986 -0.0455598 
0.739899 -1.31838 0.177943 0.702602 -1.35511 0.138531 0.859642 -1.29909 -0.0263008 
1.00894 -1.24927 0.0865343 1.06215 -1.27495 0.0385608 0.912248 -1.25106 -0.14001 
0.786903 -1.28887 0.114854 1.109 -1.28525 0.393661 1.0043 -1.2468 0.189052 
0.818639 -1.24341 0.228992 0.698395 -1.25827 0.110992 0.931369 -1.36161 0.216179 
0.857245 -1.28509 0.118873 1.19577 -1.36103 0.117244 0.94766 -1.35365 0.143801 
1.12381 -1.25911 -0.0981567 1.02645 -1.26093 0.275368 0.763043 -1.22451 0.095052 
0.99295 -1.35449 0.196304 0.29759 -1.4153 -0.358877 0.199598 -1.37214 -0.327226 
0.0322034 -1.4135 -0.0346095 0.441314 -1.28069 0.531353 0.0339859 -1.41171 0.191302 
0.0880468 -1.32445 -0.107034 0.340214 -1.30687 -0.394474 0.0369042 -1.3621 0.021167 
0.0326481 -1.34522 0.488183 0.346399 -1.40639 0.198504 0.151663 -1.41314 0.444403 
0.323903 -1.34693 0.532516 0.0880627 -1.39513 0.227375 0.326568 -1.35888 -0.265532 
0.218164 -1.3508 -0.128978 0.24786 -1.41429 -0.201091 0.124786 -1.33757 0.153016 
0.311888 -1.29156 0.50198 0.0914717 -1.33718 -0.219855 1.00546 -1.41418 0.472965 
0.234061 -1.40735 0.202614 0.218302 -1.34172 -0.0601827 0.403422 -1.35843 -0.282331 
0.150923 -1.32358 -0.00109734 0.582362 -1.41374 0.215449 0.468972 -1.4131 0.144628 
0.452219 -1.28908 0.341091 0.273816 -1.35697 0.322775 0.194233 -1.36246 0.157574 
0.311477 -1.34573 0.270465 0.80261 -1.4127 -0.226398 0.190201 -1.38816 0.264685 
0.356652 -1.34239 -0.0620931 0.161697 -1.30575 -0.120758 0.394469 -1.41526 -0.141318 
0.293265 -1.35431 -0.0873448 0.465355 -1.33987 0.396001 0.479117 -1.25496 0.39492 
0.297827 -1.35992 -0.022118 0.358383 -1.34945 0.0163099 0.800913 -1.29765 -0.212219 
0.378914 -1.36167 0.155186 0.336228 -1.34528 -0.179601 0.352517 -1.29995 0.131928 
0.377611 -1.29362 0.256162 0.347348 -1.33269 0.211697 0.525961 -1.23587 0.436729 
0.447921 -1.29515 0.108855 0.734837 -1.25944 -0.210304 1.05805 -1.36702 -0.147647 
0.310161 -1.30423 0.0039843 0.443662 -1.30485 -0.0198183 0.836476 -1.41477 -0.140647 
0.613573 -1.36234 -0.0114352 0.649984 -1.3631 0.27517 0.501448 -1.35077 0.24442 
0.518278 -1.26081 0.345311 1.14793 -1.36794 0.380222 0.628733 -1.36896 -0.0746834 
1.12056 -1.28383 -0.219292 0.725251 -1.2969 -0.116715 0.853533 -1.32466 -0.107617 
0.686939 -1.3636 -0.0514615 0.746221 -1.34164 -0.00649185 0.897855 -1.35459 -0.055551 
1.05009 -1.2361 0.467576 0.635969 -1.31482 0.0923148 0.840936 -1.41501 0.253942 
0.652725 -1.25814 -0.0946029 0.895549 -1.35379 0.0898571 1.09815 -1.319 -0.00114657 
1.01078 -1.3112 0.00853214 0.813376 -1.37076 0.0466247 0.753372 -1.3396 0.102049 
0.695556 -1.29836 -0.035334 1.05043 -1.34978 0.154909 0.854842 -1.41217 0.091457 
1.18058 -1.23162 0.410068 0.994636 -1.29005 -0.105978 1.0975 -1.40835 0.172902 
0.963262 -1.37556 -0.0366589 0.971488 -1.31624 0.0849882 0.859189 -1.20957 0.45527 
0.0341698 -1.37731 -0.227749 0.0314945 -1.41421 -0.173496 0.0354917 -1.41021 0.467883 
0.0724008 -1.41424 0.307881 0.0838435 -1.37134 0.528368 0.0998648 -1.41553 0.479708 
0.0770263 -1.41064 -0.339169 0.166902 -1.39474 -0.39495 0.38445 -1.36053 -0.403686 
0.0336249 -1.41208 -0.285948 0.0512977 -1.41294 0.0665635 0.264715 -1.4091 0.470981 
0.0355795 -1.41055 0.364003 0.240246 -1.4087 0.370463 0.142596 -1.41182 0.52728 
0.301221 -1.35418 -0.332162 0.142953 -1.41429 -0.331464 0.145809 -1.41471 -0.269125 
0.640448 -1.41014 -0.320166 0.424292 -1.41293 -0.237042 0.115811 -1.41367 0.0604177 
0.0974899 -1.34391 0.422075 0.392039 -1.33181 0.529311 0.109646 -1.35188 0.315644 
0.500941 -1.4062 0.400657 0.175004 -1.3714 0.0533246 0.310274 -1.40789 -0.168356 
0.292553 -1.41419 0.0897406 0.209793 -1.40958 -0.0930428 0.355116 -1.34891 0.469617 
0.316686 -1.32225 0.415512 0.291412 -1.40986 0.249618 0.713846 -1.35033 0.518687 
0.207097 -1.35178 0.332066 0.410867 -1.35011 0.349667 0.453611 -1.34852 -0.22416 
0.383517 -1.3558 -0.218961 0.06544 -1.35874 0.109018 0.455309 -1.40706 -0.172994 
0.24314 -1.35271 0.26732 0.263568 -1.35817 0.128587 0.420454 -1.35385 0.450645 
0.336745 -1.32098 -0.122273 0.457237 -1.41043 0.0499542 0.621456 -1.28625 -0.382282 
0.523249 -1.29212 -0.290435 0.56989 -1.41475 0.0649601 0.518666 -1.28591 0.489676 
0.648233 -1.41098 0.225417 0.550304 -1.35131 -0.296731 0.456604 -1.41397 0.209107 
0.68057 -1.36146 0.394784 1.07269 -1.29143 -0.269868 0.462862 -1.28386 -0.0797399 
0.427827 -1.34137 -0.0858879 0.501876 -1.32632 0.0148924 0.438295 -1.34185 0.0377529 
0.529228 -1.33133 0.355543 0.571447 -1.28979 0.535691 0.942794 -1.25489 0.531368 
[...]
POINT_DATA 1274
FIELD FieldData 10
VELOCITY 3 1274 double
-7.6394767686e-06 -3.4391332061e-05 -0.00010315416769 -0.00023477462535 2.9903467562e-05 5.3225509704e-05 -0.00019794821902 -2.5859281189e-05 0.00017387062917 
-5.5769146752e-05 -4.1053177954e-06 0.00010178895975 -0.00014724237484 -2.4092290691e-05 4.3957575175e-05 -7.9719525093e-05 6.5772608809e-05 0.00019582637932 
-0.00023549503389 -4.176794375e-05 -1.8859398134e-05 -0.00026003535648 3.1134321045e-07 -0.00013121928356 6.7895983803e-06 7.5112145274e-05 -0.00016931961851 
5.0592473951e-05 -8.6862453407e-05 -0.00014213813032 -0.00015153948962 1.3422903593e-05 2.2595861593e-06 -0.00021539564455 -0.00029028594398 -0.00011104512803 
-5.8414167827e-05 -0.000112135955 6.0787860338e-05 -8.1153014883e-05 6.1250309122e-06 -2.2061711728e-06 -6.8226743333e-05 -1.4415733639e-05 9.4184736978e-05 
2.2360703116e-05 3.6034006042e-05 -2.4130724018e-05 1.5228248965e-05 1.0344511389e-05 -2.147754935e-05 -0.00029371757763 -0.00012007582806 -5.299904072e-05 
-4.2505831939e-06 -0.00016946123207 -0.00020447068558 -4.8694798618e-05 2.4695624421e-05 6.2532063211e-05 0.0004004638217 -7.7530312245e-05 2.5882608346e-05 
0.00012122398404 -7.8852142173e-05 -0.00016993943602 8.2921276634e-05 -3.4132970885e-05 7.0650821339e-05 -0.00011198780135 -1.5335978197e-05 3.3224747341e-05 
-0.00010697194964 -8.8804373164e-05 0.00020872751963 -0.00016457535666 -7.6983917103e-06 7.3356992023e-05 -1.7970044124e-05 -0.00011956634527 -8.4301573774e-06 
-0.00025495772842 -8.0403157132e-05 -3.1855020382e-05 -0.00013679066581 -5.5532693782e-05 8.4293081169e-05 -0.00028844645041 -7.1517269341e-05 -5.6008446046e-05 
-0.00018752720033 -6.963272887e-05 0.00018979106684 2.6193290895e-05 4.1125567995e-05 -0.00021794071247 -0.00022612998002 -0.00018313570695 -1.7754036609e-05 
1.7540274433e-05 -0.00018533784994 -4.1082205625e-05 0.00015212378673 4.5066324985e-05 -5.2504650012e-05 7.0720340722e-05 -0.00015521156242 -1.4081071331e-05 
-9.5577757043e-05 -0.00018523346314 -0.00017724570669 -3.171250257e-05 -0.00022357812519 1.1164211623e-06 -5.2318527182e-05 -0.00013136280371 -3.7508948282e-05 
0.00045189221027 -0.00024131168429 0.00028849837467 -7.098902241e-05 -0.00032004021382 9.2546303494e-05 -1.5523751306e-06 8.7635306186e-06 9.2495315461e-06 
-0.00013892753873 8.834068334e-06 -0.0001075292336 0.00011251112923 -4.724463362e-05 -0.00013539472172 -0.00020420139726 1.0627464418e-05 0.00035418876595 
0.00013002266351 -0.00018471488709 9.2823621616e-05 1.4431674056e-05 -0.00014692914475 2.9915089476e-05 -0.00042186223709 -6.2967759912e-05 0.00012401773132 
-0.00020343008953 5.9350854909e-06 -3.276504117e-05 -5.9911258259e-05 -6.5687177029e-05 -2.8369817445e-05 3.7430336164e-05 -7.6038109682e-05 -8.2967981476e-06 
8.3378510418e-06 -0.00036085144117 0.00010834868194 -0.00014860698974 -5.8478098919e-05 -8.2672510192e-05 -0.00017102784942 0.00013606156986 3.48368781e-05 
-0.00010155526162 -6.1551706431e-05 0.00014618004401 -0.00010444111593 -2.1944989109e-05 -6.2025491165e-05 5.2905718225e-05 -6.8754379162e-06 4.150445321e-05 
5.5472890691e-05 -3.6766870828e-06 2.7766527072e-05 -7.0970085793e-05 3.6486478051e-05 5.9738117137e-05 -6.9564051626e-05 -6.595621368e-06 9.5769941397e-05 
-0.00016827974529 5.9821063833e-06 0.00018745352361 -0.00018488747834 -0.00011149869647 -4.0283389726e-05 -0.00026486754055 -4.5867239093e-05 1.9864869442e-05 
-7.6753561621e-06 -6.2765752376e-05 0.00014774418179 -0.00015666216626 -0.00022817761969 0.00021924825649 -7.9194330439e-05 -0.00014629059534 -6.0452668557e-06 
-0.00025763230567 4.1221053771e-05 4.9648577284e-05 -4.6143324044e-05 3.6355827076e-05 4.6358680121e-05 -0.00011180465737 2.9577050589e-05 8.0360560804e-06 
-0.00013950029858 -2.7910916514e-05 9.3262415662e-05 -0.00017365801059 3.2006994568e-05 0.00015647865055 -0.00011797561468 -2.9007417798e-05 -1.4215512905e-06 
-1.4199434813e-05 -6.6069494672e-05 -5.0584911261e-05 -0.00017056535457 6.8234928136e-05 -1.5197437418e-05 5.9734316062e-05 -0.00010724623078 -0.00018318747219 
-0.00011119014161 3.5900768376e-05 0.0001508961226 -0.00020365782204 -9.6120149447e-05 7.0857656988e-05 3.4482824592e-05 -6.39804552e-05 4.9627946001e-05 
5.2199113403e-05 5.2235437342e-05 0.00019268362495 0.00029469513878 0.00010079445353 0.00011513049789 -0.00024764293243 2.2166992779e-05 9.0933112661e-05 
-0.00026090092036 -9.4039073684e-05 -4.433362641e-05 -0.00020407119186 -0.00015468238436 8.5710466968e-05 4.315814899e-05 -0.0001019225135 4.9921682163e-05 
4.5415600183e-05 -0.00025958066652 -0.00014505692363 -9.7869518045e-05 -5.6443520621e-05 -0.00013159242171 0.00018803387062 -0.00018931154308 -8.5286833479e-05 
0.00025317490899 -0.00013961726139 6.6458021915e-05 6.0770670062e-05 -0.00015789250659 0.00011809814607 5.3699099002e-05 -0.00015092605781 -0.00010297958945 
-0.00023485352215 6.8116302284e-05 -1.5711956047e-06 -0.00010907605483 -6.5335709166e-05 -4.6586469195e-06 -0.00011334525821 -4.5610717299e-06 -6.8778228657e-05 
4.5805777987e-05 -0.00028726975782 -0.00020813902731 -6.8886410764e-05 1.8427725328e-05 0.00015756491604 -3.7475368453e-05 -0.00036399256044 -0.00027625812795 
-1.5479793721e-05 1.6871158514e-05 -6.2062404051e-05 0.00019450184875 -4.8210307133e-05 0.00015598543352 5.9957118174e-05 -8.6073216285e-06 -0.00017808357061 
-4.2845733217e-05 -5.2381015838e-06 -4.6546253991e-05 -0.00023321774918 3.1912490277e-05 4.6562057698e-05 4.4614282433e-05 -2.9602042066e-05 -0.00018528917866 
-0.00019127945596 7.4231753078e-05 7.6897154729e-05 -3.7203999341e-05 -0.00022237451292 -0.00010448057824 1.8944973542e-05 -0.00010339567049 -0.00021783473753 
3.4844196978e-06 -0.00025394775594 -0.00019232750155 -3.9207102127e-05 -1.138022466e-05 -0.00014453465619 3.2913043269e-05 -5.9461780018e-05 -0.00015895345431 
6.9368243709e-05 -0.00021132056305 6.8400490006e-05 -1.2924197349e-05 -4.4100312295e-05 -0.00016244434894 -5.2177755758e-05 -2.0248568444e-06 7.9949912072e-06 
8.3963257034e-05 -9.0494447851e-05 0.00016112233647 -9.8286507824e-05 -0.00030827062972 7.825698925e-05 -0.0001077511073 -5.1083993244e-05 -3.8284669158e-06 
-6.7400337179e-06 2.6291069319e-05 1.9855480484e-06 0.0001018411911 -0.00012553388205 -6.8365494393e-05 -3.1593006606e-05 -6.1827152057e-05 -3.5322719787e-05 
4.3813852353e-06 -4.400013685e-06 -5.7909582793e-06 -8.3536807176e-05 8.1070074253e-05 -2.5047540628e-06 1.594557536e-05 -0.00028589861672 -0.0002029831585 
8.3504205109e-05 -0.00035983019305 -0.00021291991576 0.00012388945166 2.2428778041e-05 -0.00012782391624 -0.00016986107241 -4.0009383107e-05 -7.1847588186e-05 
-0.00013736184956 -9.7322336732e-05 9.731523687e-05 -9.588032794e-05 2.0792150199e-05 7.4395741342e-05 -8.95610974e-05 -1.6161339357e-05 -0.0001401023151 
-1.2747837128e-05 -4.9680094592e-05 -4.9774121277e-05 8.3353172669e-05 -5.1946063155e-05 -0.00014009959159 -0.00029719553419 -0.00021665172027 0.00032791665716 
-0.00029416653085 -0.0001937096648 7.6939693002e-05 0.00018172607363 -0.00026598563023 -0.00012613774908 -6.6079109977e-05 0.00011193021167 -8.0703443848e-05 
-0.00016901607994 -0.00020019329882 -9.0647928098e-05 1.5955597605e-05 -4.6731890914e-05 -2.8581902337e-05 -0.00028761851624 -0.00016358670215 -0.00026213247231 
-6.6726299867e-05 -0.00021008822731 4.8264670876e-05 -5.1173747243e-05 4.751130806e-05 -5.736740413e-05 -2.2678548399e-06 4.1935324336e-05 -1.5825798554e-05 
2.7500078178e-05 1.0535032337e-06 3.0792857807e-05 -1.1402277395e-05 4.3337477156e-05 0.00019011674219 -3.5636534098e-05 -6.9175004787e-05 -2.9844994687e-05 
-7.0844191076e-05 5.7954999056e-06 -0.00012881033066 2.1897328862e-05 1.3166066373e-05 -5.8448752704e-06 -0.00020849437941 -4.5313130339e-05 2.8764127731e-05 
-1.3798676419e-05 1.2517622647e-05 -2.7234209212e-05 8.1283143787e-05 -1.3344705334e-05 -9.8507884016e-05 -5.6396791392e-05 -3.8408695439e-05 -6.8346163942e-06 
8.9535609645e-05 -2.6142268197e-06 6.0208702681e-05 -4.7783312146e-05 1.7039494805e-05 4.3108440999e-05 -7.3123730464e-05 -4.0630786722e-05 -0.00010936997153 
-5.9088592468e-05 -0.00019072276942 0.00011353889341 -2.5520661522e-05 2.3406012672e-05 -6.0217878264e-05 -0.00023441372531 8.9330182188e-06 -0.00011152015998 
-0.0001392939803 0.0001813773123 0.0001783474827 -0.00010360525468 3.4744679811e-05 -7.8070969362e-06 -9.2772858725e-05 -6.5367058592e-05 -6.2131377748e-05 
-0.00013721467296 1.4359525952e-05 3.9652865927e-05 -0.00019612295598 -7.1490799652e-07 3.9550323807e-05 4.1155451731e-05 -4.4761041535e-05 3.4135345515e-05 
-3.9975764312e-05 -8.1072673337e-06 -6.2521244212e-05 -0.00016060446225 -5.0650130841e-05 -2.8959689481e-05 0.00026959198435 -9.0672873971e-05 -3.6531845736e-05 
-0.00010175416785 -1.2187981143e-05 0.00011815424667 0.0001335218902 -8.2946155358e-05 -7.9042036787e-05 -0.00014429783805 -2.0668643708e-05 3.3608989821e-05 
-8.3974164131e-05 4.835714659e-05 2.9155567677e-05 -0.00012913944649 4.6675102037e-05 0.00014064438311 -0.0002156191537 -3.0243725952e-05 5.134170329e-05 
-2.1812022488e-06 -0.00019958911941 4.2038380316e-05 -9.8185894645e-05 1.478662687e-06 4.3795502509e-05 5.7633874476e-05 -8.1115437813e-05 1.0152562035e-05 
-9.3001819903e-05 7.4216683901e-05 -4.9784802141e-05 -0.00019590560207 7.7330051807e-05 0.00023547322684 -0.0002452485827 6.6788499168e-05 -8.0331085429e-05 
-0.00010866518886 -1.4590677569e-05 1.5185555146e-05 3.7780246446e-05 -0.00029935820632 -4.8274418521e-07 -0.00012213462929 5.1307875965e-05 -4.5939995957e-06 
6.1708093093e-05 -0.00017601413483 0.00019221254662 -0.00018080911073 -1.6250952751e-05 9.4484735115e-05 -3.0952569166e-05 -7.6363537647e-05 7.5656388144e-05 
-6.8468306815e-05 5.5322917855e-05 -9.7657419257e-05 -0.00012323715771 4.5198706087e-05 0.00011572805286 -9.386726685e-05 -1.7212177489e-05 -9.5294512078e-05 
-4.8548323576e-05 -0.0002906348046 0.00011338879355 4.9681605055e-05 -0.00011512765154 -8.739401848e-06 5.0528534233e-05 2.4691972123e-05 7.0974913381e-05 
-0.00010871863422 0.00019687024458 5.6566052967e-05 1.8051221366e-05 -4.1099851327e-05 2.437638457e-05 0.00023812804667 -0.00011159639796 -5.8927521217e-05 
6.0206566554e-05 -4.9957587324e-05 2.9455034134e-06 2.2790254585e-05 -6.7546595125e-05 0.00012973207669 -0.00019173368369 -0.00022196932142 -0.00012172344157 
-0.00015167134325 -5.5841438213e-05 -6.8614118408e-05 -6.1827883372e-05 -3.3015405817e-05 -2.9290242697e-05 8.5959640381e-05 -2.5718220036e-05 -0.00018503199009 
-1.8366025386e-05 -7.6749084698e-05 -0.00013716052467 -0.00025080900829 -0.00010173637009 0.00010283134677 2.3510745139e-06 9.6820818704e-06 0.00014135450114 
0.00010646113487 -4.3262084515e-05 -0.00014437718776 4.6926434403e-05 -0.00012967783034 -6.2934547987e-05 -0.00010728125028 -8.956757002e-05 0.00019830383435 
-3.5532653337e-05 -0.00011335752048 -9.6456927671e-05 -0.0002646468313 -0.00069841402755 -0.00061332972081 -6.5346170309e-05 -4.3767674232e-05 0.00010194587749 
7.5563712243e-05 -0.0001075898604 -2.0478474595e-05 -0.00011186049112 -7.2367701007e-05 2.0035936979e-05 -0.00025964296932 -0.00026195804048 -0.00037818432009 
-6.4912782504e-05 9.6491846693e-05 -0.00014293532018 -3.3197828241e-05 -5.7716388874e-05 0.00015264604177 0.00019177351219 0.00012221810251 0.00016694670962 
2.5251312203e-05 -0.00017081108266 -0.00016558346729 -6.4981626786e-05 -0.0001604553868 5.7190284639e-05 -8.4710439342e-05 -0.00014404684882 -0.00013214198631 
-0.00015900907716 -0.00057025627078 -0.0002275960969 0.00010888637668 0.00017552421897 -0.00018962157235 1.2350030906e-06 3.6151939304e-05 -1.1647222187e-05 
1.4473711853e-05 -1.1776145119e-05 -6.3462810916e-05 -7.5806797412e-05 -1.1975720446e-06 -2.1316860771e-05 1.6300352285e-05 -0.0002619233254 0.00017147319276 
4.9269706453e-05 -0.00016901507548 -2.378771802e-05 -1.5967455076e-05 -2.3370010174e-05 1.3516765202e-05 1.6626396221e-05 1.2174567785e-05 6.2072012183e-05 
-6.9140527649e-06 5.4175336658e-05 -0.00017989615593 -0.00010206703916 -8.0085716753e-06 2.0916357751e-06 -0.00028508898967 0.00019314553339 -0.00018732136117 
-9.8474535667e-05 -2.3721206669e-05 3.112725052e-05 -3.5515036531e-05 7.5883858095e-05 2.642440227e-05 -3.8024212361e-05 -1.0569584082e-05 -1.6472125654e-05 
-5.6960418476e-05 -9.3306448923e-05 0.00013302246243 -0.00061799765896 7.3975390432e-12 0.00080473983804 -0.0001775164901 4.8885053552e-05 3.5583186445e-05 
-6.5173458684e-05 -4.8506727044e-05 -4.7557759746e-05 -6.7154800097e-05 0.00017440477006 -7.9520768799e-05 -0.0001117726527 -1.4190379837e-07 4.5606840125e-05 
-0.00014121801536 1.5708484809e-05 -7.6705899769e-05 0.00012479885811 -0.00017041192701 0.0001466558364 -2.922668656e-05 2.3652654222e-05 -1.9270713399e-05 
-7.8455955052e-05 -7.3945259591e-05 -3.7861718939e-05 -1.6958237499e-05 1.3252219492e-05 0.00013278209123 -5.7826250475e-06 7.361273257e-06 0.00010578944348 
-0.00026179802539 -3.9534567977e-05 6.1967672399e-05 -0.00012249304441 -4.295683696e-05 3.9873027806e-05 -0.00017885578484 1.9570284289e-05 -3.1146618531e-05 
-0.00010584614153 -5.5768465558e-05 4.2071058368e-05 0.0001021176558 -3.8601279915e-06 -0.0001598168297 -1.6644429617e-05 -0.00014763638491 2.0182596526e-05 
0.00020001642426 -9.8684474897e-05 -7.5779875264e-05 2.3087215972e-05 7.7602696342e-06 8.310429145e-05 -1.762576068e-05 -7.4326295977e-06 0.00017097292264 
6.8764666558e-05 -6.3967047388e-05 -1.8978554811e-05 -0.00019595201936 -6.8588083621e-05 -5.6256366623e-05 -0.00011705384686 -8.6707385174e-05 5.3415818475e-05 
-0.00012382173865 -5.0643566807e-05 3.3618376847e-05 -0.00019254567863 -3.2748639211e-05 2.7711638884e-05 9.2517222408e-05 -0.00018167196183 -8.5254443605e-05 
-7.2267479464e-05 -3.3391502345e-06 -1.065542754e-06 2.0490453567e-06 0.00018092384113 -0.00015036416531 -0.00014281580882 8.5720390761e-08 1.5977515597e-05 
-3.7746088633e-05 2.3900998053e-05 -1.2519520898e-05 -6.5263663969e-05 -2.4585846131e-05 6.1439894913e-05 -6.9529371037e-05 -0.00017234911706 6.1466871995e-05 
-2.9289266757e-05 2.3696387762e-05 -2.5738902583e-05 -4.6467623167e-05 -0.00036542918876 9.649648388e-05 -1.4211952589e-05 -3.2132408195e-05 5.0236323842e-05 
-0.00017796643527 -3.3183537289e-06 1.2690048652e-05 1.084148026e-05 -0.00011329264689 -3.3684762745e-05 -7.1216335847e-05 -1.2840672135e-05 4.1869047629e-05 
-8.612067627e-06 -4.0015942821e-05 -0.00016910365394 -4.4162336613e-05 -8.1476013048e-05 0.00011382667667 -0.00020393710802 -7.7079659256e-05 -2.1136520045e-05 
-0.00012969604787 -0.00021462102654 -6.7284130778e-06 8.3953240837e-05 3.3150431354e-05 5.2057341908e-05 -6.665543887e-05 -9.5651383833e-05 3.008270502e-05 
9.2132841226e-05 -0.00011965275659 -0.00010603646207 7.1974293409e-05 -0.00022365814643 -0.00038668601758 -0.00017566585122 -6.3354309249e-05 0.00015428805296 
4.4596216924e-05 1.1454459328e-05 1.4677842786e-05 -0.00013447749683 -8.88218141e-05 -3.9358457836e-05 5.618822384e-06 2.3312470635e-06 2.1240829211e-05 
0.00011741637453 1.447251139e-05 8.1169103701e-05 8.5414460262e-05 -8.5961521587e-07 -5.5216276906e-06 -0.00021849654243 -7.3778511103e-06 -0.00018534543511 
-8.5378402193e-06 -0.00021477639576 -0.00013831802652 -0.00012980567342 5.3625131269e-05 1.9032999946e-05 -5.7351427509e-05 -0.0002924961914 -0.00023197736752 
3.9565953244e-06 -0.00012402454303 -4.5558970504e-05 0.00020366453592 -0.00012833033789 5.2404673175e-05 -0.00016733020399 -4.4658655367e-05 0.00022824958608 
-0.00019555251285 -0.00013185163798 -0.00018334426436 6.6349964663e-05 0.00011568896464 -0.00018637359228 -3.5659011716e-05 4.5962468541e-06 0.00014942231778 
9.4572353859e-05 -0.0002311735488 -5.3055586919e-05 0.00011567397553 2.3634642033e-05 0.00013627776693 -0.00029845014815 -5.3008461333e-05 -0.00026425829045 
-0.00013426542641 -5.8569860212e-05 0.00010637829079 -0.00011976771423 0.00012392540543 1.3403818204e-05 -0.00022035581533 -0.00017552121134 -0.00036291054346 
1.4870176758e-05 -4.9358081818e-05 -0.0002152592613 -0.00013891069714 0.00018391047235 -8.4859665777e-05 -1.6257324277e-05 -2.2137077531e-05 -1.6671617246e-05 
-5.3744686453e-05 3.5150293251e-12 0.00021754223253 -0.00019471907373 9.3473847837e-05 -3.4150928892e-05 0.00011785124892 2.6468571942e-05 0.00040829235471 
8.7307658935e-05 8.7290524623e-06 -0.00011950543259 -1.0052142891e-05 5.0825449837e-05 -9.0229886589e-07 1.1220256349e-05 9.9582606164e-06 -6.3933203637e-06 
2.1811816367e-05 -7.572660881e-07 -5.6648384457e-05 -2.3036957331e-05 -1.9847686428e-05 -1.3572329432e-05 -0.00022509885087 -1.4781914123e-05 6.5347023834e-06 
3.528559969e-05 1.6504756333e-06 0.00014915091971 0.00011121783197 1.2751439598e-05 4.4173301314e-05 -0.00019735899733 -4.3817991779e-06 0.0002659401015 
-0.00013455298181 -6.9418454071e-05 0.00014295552352 2.4950344966e-05 -5.881617796e-05 -2.4679681989e-05 3.5206254138e-05 6.076894071e-05 4.3342396421e-05 
3.9841590595e-05 -6.9548581644e-06 0.00012957623065 -3.3490753577e-05 1.2670478387e-05 8.4524773805e-06 -4.983865106e-05 2.4014470535e-12 -0.00010956749742 
7.4312601519e-06 3.6181218305e-05 -3.6509601788e-05 -7.9324896593e-05 -2.1828994171e-06 -9.9215222562e-06 -1.5584139709e-06 1.0509079741e-05 0.00012170114659 
4.535087234e-05 -3.7520627685e-06 -0.00024258381224 -0.00010538516022 -3.2686794238e-05 -0.00011914591261 -1.8944961366e-05 8.0727526187e-05 -3.5137099704e-05 
4.2129429823e-05 -1.4977581145e-05 -6.2417866534e-06 -8.2647050899e-05 -0.00021673579476 2.9292309265e-06 -0.00015097749759 -2.3985526052e-05 8.0031589615e-05 
-7.2256931852e-05 2.497815162e-05 2.0900089464e-05 -4.9097555087e-05 -1.2348922902e-05 5.2576892858e-05 1.9072461083e-05 3.1082471695e-05 0.00010558483948 
-8.2799150641e-05 -8.1497427213e-06 4.9866539336e-05 -0.00030200622372 -5.4668522585e-05 -1.7431209179e-05 -6.2324228479e-05 -5.3361000368e-05 6.5219530971e-07 
7.8311221394e-05 2.1101608083e-05 7.9867964692e-05 -8.5668261957e-05 2.8227796076e-05 -6.298123774e-05 -0.00011573904025 4.4881538744e-05 9.4413583661e-05 
-0.00018245766702 7.1083150434e-06 -1.0292027797e-05 -6.6658926673e-05 -2.8758908128e-06 1.6411376163e-05 -0.00015927435585 -7.1732930381e-05 8.3330244395e-05 
5.0665746085e-05 -5.8691040522e-05 2.7115509604e-05 -0.00016282982099 -0.00015692559734 0.00018101985669 -2.7241339763e-06 -0.00033470095138 -7.8126102275e-05 
-0.00020487272673 -3.6458953427e-05 4.6332265819e-06 8.9513323484e-05 -1.3379288789e-05 -7.033813991e-05 -0.00032526659201 -2.0749089571e-05 0.00012956663955 
-0.00027084588345 4.3682832879e-05 8.9553283039e-05 -2.2723417949e-05 1.5099643965e-05 -6.257730928e-05 1.9391091556e-06 -7.9559467064e-05 -0.00015103927687 
-0.00014146845122 2.9712569342e-06 8.2753527599e-05 -5.4763040754e-05 -0.00016487948604 4.367729023e-05 -0.00014371312594 8.5541618975e-05 -1.2068391655e-06 
-0.00022586826885 4.0432763157e-05 0.00018042940118 -7.097648544e-05 2.899712624e-05 -8.0720333174e-06 -3.2258193285e-05 3.0214962386e-05 2.1086254887e-05 
-0.00020359615742 -0.00024048508734 -3.4926828969e-05 -7.537439542e-05 -9.4535848017e-05 -2.7983071648e-05 -1.4484601749e-05 -0.00018808340674 -1.1568993565e-05 
-7.8151862823e-05 1.0862185029e-05 2.2998532665e-05 -0.00016070773831 -7.7187113934e-05 -2.0649926454e-06 0.00013349035612 -9.1160077497e-05 -8.0817385429e-05 
7.0341265919e-05 -0.00015627339337 -0.00036407179851 -0.00023770690989 -0.00028101835918 -0.00028041873259 -0.0001647853517 -3.3456862609e-05 -1.1153095112e-05 
1.0467858419e-05 -2.7253018698e-05 -0.00031568489506 -0.00011126941304 1.8831013935e-12 4.9845776734e-05 4.0864312378e-05 -6.8182524759e-05 -0.00019789485692 
-2.5402830802e-05 0.00017395940344 0.00010138261505 -0.00032246187377 -0.00014090193652 0.00010756140314 -2.6233065033e-05 -1.1722750985e-06 -0.00011900865284 
-0.00011849616744 -5.0933603222e-05 0.00016656192336 -0.00018948380384 -0.00016858657545 -3.6630794268e-06 -9.5595880064e-05 -3.6228967886e-05 -4.881567701e-06 
0.00018480072263 5.1514209378e-05 -7.1191457557e-05 1.9565312337e-05 2.638244044e-05 -4.8812161454e-05 -6.2844972653e-05 1.7140775684e-06 -4.9788719819e-05 