# vtk DataFile Version 4.1
vtk output
ASCII
DATASET UNSTRUCTURED_GRID
POINTS 1274 float
0.273713 -1.29442 -0.0532294 0.273996 -1.30223 0.0958523 0.279859 -1.29499 0.316611 
0.157858 -1.31612 -0.211113 0.298413 -1.29136 0.178009 0.41165 -1.23462 -0.0671364 
0.38164 -1.29107 0.322059 0.470354 -1.2355 0.493167 0.512179 -1.2437 -0.00788213 
0.637031 -1.2533 -0.00550544 0.538983 -1.34675 0.187592 0.64148 -1.22251 0.434188 
0.852411 -1.27249 -0.151238 0.843578 -1.25446 -0.0829253 0.657816 -1.2963 0.158042 
0.755462 -1.27583 0.265929 0.69617 -1.27025 0.218803 0.794063 -1.20783 -0.044837 
0.637097 -1.20741 -0.0558559 0.672415 -1.34643 0.00775938 0.71508 -1.19063 -0.0821024 
0.690731 -1.30813 0.278296 0.385032 -1.23185 0.277575 0.615335 -1.27207 0.224717 
0.912921 -1.23656 -0.0766917 0.320752 -1.23831 0.149074 0.657563 -1.20774 0.363538 
0.814321 -1.1949 -0.113117 0.921309 -1.31391 -0.000372153 0.823218 -1.22927 0.038065 
0.971841 -1.20852 -0.0152115 0.656918 -1.22812 0.0468259 0.557762 -1.21882 0.378447 
1.08232 -1.2227 -0.28783 1.0335 -1.24154 -0.141557 0.503934 -1.22122 0.280659 
0.789977 -1.2787 -0.0125163 0.634969 -1.2737 0.28563 0.405256 -1.25063 0.13785 
0.949495 -1.20209 0.0572352 0.851387 -1.22664 -0.20843 0.798151 -1.23315 0.160135 
0.838283 -1.21212 0.108901 0.748265 -1.2209 0.216158 0.903513 -1.24342 -0.00555073 
0.984962 -1.23807 -0.236654 0.89181 -1.25228 0.291512 0.887006 -1.21788 0.23012 
0.452365 -1.29926 -0.306682 0.167861 -1.33253 0.280787 0.145242 -1.35881 -0.0654388 
0.0370368 -1.33451 0.173587 0.2865 -1.34239 0.471674 0.2559 -1.33817 0.384968 
0.23978 -1.3131 0.164479 0.379717 -1.35336 0.285152 0.151436 -1.34827 -0.274581 
0.359419 -1.41001 0.0556293 0.611917 -1.28941 -0.213263 0.217818 -1.35344 -0.222233 
0.399605 -1.34728 -0.151413 0.371702 -1.35513 0.404578 0.399445 -1.293 0.394609 
0.278202 -1.34831 0.20889 0.213502 -1.33813 0.00537507 0.48522 -1.26607 -0.187228 
0.413422 -1.36081 -0.0237604 0.583485 -1.34512 0.299835 0.433322 -1.28269 -0.142611 
0.304271 -1.28411 0.242969 0.552713 -1.36028 -0.0195701 0.376811 -1.27369 0.194453 
0.331427 -1.29838 0.0617554 0.330656 -1.26199 0.445515 0.508625 -1.2274 -0.0832934 
0.62352 -1.4128 0.0996153 0.544181 -1.25109 -0.240754 0.212439 -1.28184 -0.175365 
0.568409 -1.35603 0.0414246 0.541295 -1.30135 -0.0341007 0.328452 -1.26195 0.297431 
0.451556 -1.28836 0.450352 0.579844 -1.33501 0.469913 0.446576 -1.28089 0.264188 
0.51112 -1.29934 0.291104 0.452022 -1.36109 0.112148 0.615556 -1.30357 -0.0476338 
0.643723 -1.22724 -0.214026 0.972617 -1.28505 -0.284643 0.570351 -1.2862 0.172291 
0.475276 -1.28638 -0.250549 0.764637 -1.28926 0.343904 0.645607 -1.3273 0.220643 
0.577089 -1.23853 -0.0536571 0.999464 -1.26676 -0.0445196 0.741764 -1.25444 -0.0607983 
0.684789 -1.29048 0.0494674 0.87638 -1.34915 0.161898 0.603143 -1.25475 0.0799037 
0.780332 -1.23223 0.388023 0.79107 -1.24168 0.464703 0.545528 -1.26308 0.232932 
0.826113 -1.35949 0.207832 0.622041 -1.22493 -0.144757 0.68787 -1.23254 -0.0329816 
0.553123 -1.24053 0.123858 0.732435 -1.23675 0.0213507 0.808465 -1.30048 0.178061 
0.828954 -1.25021 0.340667 0.681232 -1.26708 0.329885 0.80924 -1.22657 0.532537 
0.912559 -1.24727 -0.36941 0.769676 -1.30967 0.0489363 0.437794 -1.25597 0.192601 
0.723877 -1.22675 0.535002 1.16348 -1.22109 0.0118985 0.628974 -1.26626 0.530084 
0.734239 -1.22571 0.317705 0.70507 -1.24504 0.415413 0.578957 -1.2432 0.0155374 
0.958656 -1.2925 0.219518 1.10565 -1.23872 -0.167 0.839061 -1.30529 0.0442269 
0.977027 -1.22594 -0.0923797 0.908402 -1.28982 0.0617323 0.616345 -1.23676 0.147559 
1.3216 -1.19719 0.526139 0.738723 -1.25633 0.161147 0.940405 -1.22518 0.1936 
0.952561 -1.2082 0.422989 1.21187 -1.26336 -0.182655 0.905163 -1.23213 0.097808 
1.04517 -1.22578 -0.00798639 0.863833 -1.2334 0.171997 1.10073 -1.25815 -0.0320202 
0.963401 -1.2628 0.0317782 0.0867043 -1.41341 -0.246582 0.285897 -1.36073 -0.213021 
0.430058 -1.40919 -0.397639 0.0351686 -1.35959 0.315333 0.213253 -1.32112 0.482537 
0.0966878 -1.40799 0.156713 0.216627 -1.34414 -0.402017 0.500687 -1.31858 -0.348225 
0.0870941 -1.35984 -0.38148 0.493753 -1.34763 0.459796 0.25105 -1.27897 0.529061 
0.147083 -1.35435 0.379405 0.241097 -1.41179 0.29771 0.0966917 -1.35818 -0.0125085 
0.276985 -1.31999 -0.156644 0.0801029 -1.35882 -0.288947 0.47242 -1.35385 0.309884 
0.34866 -1.40768 -0.0292796 0.129633 -1.34349 0.230574 0.213295 -1.33457 0.0981702 
0.219674 -1.29565 0.291414 0.320894 -1.29136 -0.295097 0.270958 -1.34801 0.0404017 
0.422554 -1.31833 0.166181 0.0826646 -1.29261 0.215278 0.515558 -1.3004 0.419291 
0.893304 -1.30017 0.533049 0.546826 -1.35551 0.420434 0.240902 -1.29489 0.228658 
0.318226 -1.35521 0.156951 0.318863 -1.35429 0.0925917 0.367321 -1.2884 -0.232396 
0.520238 -1.33279 -0.241346 0.492722 -1.2928 0.203982 0.548578 -1.22581 0.527673 
0.644652 -1.28738 0.408259 0.777022 -1.34088 0.461841 0.423874 -1.34429 0.228999 
0.676959 -1.41468 0.136486 0.594882 -1.22171 -0.399396 0.601252 -1.35847 0.188496 
0.854033 -1.22686 -0.316445 0.391299 -1.29513 -0.298433 0.828496 -1.29962 0.283805 
0.759194 -1.28959 0.419827 0.332871 -1.28446 -0.172135 0.571391 -1.27624 0.288801 
0.670143 -1.27239 -0.166634 0.490103 -1.24955 0.145377 0.879438 -1.29193 0.214189 
0.970444 -1.38761 0.0885903 0.53566 -1.28032 0.0564391 0.994779 -1.25497 0.443992 
0.648775 -1.33022 0.341054 0.941744 -1.29602 -0.0632499 0.675425 -1.20732 -0.270341 
0.725738 -1.22893 -0.145004 0.791378 -1.30415 -0.0806665 0.82081 -1.3498 -0.0452608 
0.739889 -1.31819 0.178268 0.703018 -1.35496 0.138498 0.859737 -1.29912 -0.0262714 
1.00878 -1.24925 0.0867747 1.06206 -1.27478 0.0386888 0.912359 -1.25098 -0.140374 
0.786904 -1.28871 0.115055 1.10934 -1.28417 0.394646 1.00432 -1.24675 0.188807 
0.818531 -1.24324 0.22901 0.69872 -1.25831 0.110966 0.931748 -1.36128 0.216726 
0.857259 -1.28511 0.119004 1.19591 -1.36089 0.117137 0.94738 -1.3539 0.143554 
1.12377 -1.25885 -0.0978427 1.02652 -1.26069 0.275261 0.763273 -1.22428 0.0951911 
0.993199 -1.35367 0.196635 0.297592 -1.4153 -0.358821 0.199565 -1.37219 -0.32721 
0.0322036 -1.4135 -0.0345057 0.441424 -1.28068 0.531353 0.0339858 -1.41171 0.191277 
0.087988 -1.32421 -0.106978 0.340238 -1.30684 -0.394474 0.0369043 -1.36217 0.0211583 
0.032648 -1.3453 0.48844 0.346551 -1.40639 0.198481 0.151858 -1.41314 0.444433 
0.324013 -1.34689 0.532516 0.088164 -1.39523 0.227241 0.326658 -1.35882 -0.265389 
0.218217 -1.35065 -0.12919 0.248791 -1.41429 -0.202297 0.12505 -1.33765 0.152937 
0.311991 -1.29147 0.502069 0.0915382 -1.33738 -0.219733 1.00558 -1.41418 0.472952 
0.234226 -1.40735 0.202627 0.218212 -1.34149 -0.0604061 0.403481 -1.35848 -0.282325 
0.151015 -1.32347 -0.00109131 0.582375 -1.41374 0.215238 0.469113 -1.4131 0.144581 
0.452619 -1.28903 0.34099 0.274077 -1.35688 0.322722 0.194507 -1.36248 0.157657 
0.31169 -1.34571 0.270364 0.802327 -1.4127 -0.226582 0.190322 -1.38799 0.264682 
0.356517 -1.34232 -0.0620705 0.161667 -1.30573 -0.120852 0.394467 -1.41526 -0.141539 
0.293174 -1.35421 -0.08738 0.465621 -1.33977 0.396115 0.479315 -1.25483 0.394872 
0.297957 -1.35988 -0.0221735 0.358704 -1.34947 0.0162192 0.800727 -1.29737 -0.212147 
0.379049 -1.36167 0.155163 0.336271 -1.3453 -0.179541 0.352756 -1.29993 0.132007 
0.377688 -1.29362 0.256126 0.347524 -1.33268 0.211574 0.526196 -1.23565 0.436594 
0.447879 -1.29509 0.108939 0.734758 -1.25897 -0.210286 1.05808 -1.36697 -0.147713 
0.310505 -1.30422 0.00390145 0.444102 -1.30492 -0.0197684 0.83648 -1.41477 -0.140704 
0.61358 -1.36224 -0.0114149 0.650096 -1.36313 0.275118 0.501738 -1.35066 0.244408 
0.518521 -1.26043 0.345267 1.14794 -1.36801 0.380319 0.628694 -1.3687 -0.0744533 
1.12042 -1.28364 -0.219143 0.72517 -1.29658 -0.116138 0.853788 -1.32459 -0.107794 
0.687032 -1.36357 -0.0515131 0.746593 -1.34152 -0.00647853 0.897929 -1.35459 -0.0556113 
1.04989 -1.23605 0.467507 0.635937 -1.31486 0.0923651 0.841282 -1.41501 0.254256 
0.652608 -1.25778 -0.0944184 0.895599 -1.35377 0.0896767 1.09829 -1.31882 -0.000819682 
1.01075 -1.311 0.00851679 0.813294 -1.37062 0.046597 0.753642 -1.3395 0.101793 
0.695839 -1.29816 -0.0350363 1.05061 -1.34984 0.155054 0.854855 -1.41217 0.0911603 
1.18038 -1.2313 0.410155 0.994478 -1.28991 -0.106281 1.09774 -1.40835 0.17308 
0.963363 -1.37553 -0.0367852 0.971603 -1.31637 0.0849769 0.858869 -1.2086 0.453218 
0.0341697 -1.37743 -0.227556 0.0314946 -1.41421 -0.173221 0.0354918 -1.41021 0.4679 
0.0724676 -1.41424 0.307552 0.0839903 -1.37152 0.528368 0.0999042 -1.41553 0.479509 
0.0769451 -1.41064 -0.339116 0.166927 -1.39483 -0.39495 0.384419 -1.36054 -0.403686 
0.0336249 -1.41208 -0.285828 0.0514491 -1.41294 0.0665891 0.264945 -1.4091 0.470978 
0.0356141 -1.41055 0.363775 0.240064 -1.4087 0.37035 0.142875 -1.41182 0.527989 
0.301677 -1.35416 -0.332205 0.142879 -1.41429 -0.331474 0.145816 -1.41471 -0.269138 
0.640516 -1.41013 -0.320266 0.424287 -1.41293 -0.237071 0.115958 -1.41367 0.0606161 
0.0974708 -1.34395 0.422135 0.392158 -1.33181 0.529311 0.109642 -1.3519 0.315448 
0.500998 -1.4062 0.400809 0.175073 -1.37135 0.0535437 0.310241 -1.40789 -0.168349 
0.292562 -1.41419 0.0897202 0.209883 -1.40922 -0.0930946 0.355385 -1.34883 0.469502 
0.316786 -1.32232 0.415519 0.291585 -1.40986 0.249618 0.713814 -1.35036 0.51857 
0.207334 -1.35184 0.331909 0.411255 -1.35004 0.349648 0.453601 -1.34855 -0.224252 
0.383506 -1.35577 -0.218981 0.0655425 -1.35877 0.109098 0.455387 -1.40706 -0.173062 
0.243359 -1.35269 0.267284 0.263746 -1.35818 0.128532 0.420718 -1.35373 0.450502 
0.33669 -1.32088 -0.122265 0.457386 -1.41043 0.049812 0.629248 -1.28035 -0.372189 
0.523674 -1.29206 -0.290458 0.569954 -1.41475 0.0649121 0.519166 -1.28588 0.489394 
0.648225 -1.41098 0.225345 0.550474 -1.35139 -0.296521 0.45664 -1.41397 0.209186 
0.680652 -1.36145 0.394734 1.07281 -1.29121 -0.269965 0.463128 -1.28396 -0.0797581 
0.428135 -1.34147 -0.0861689 0.501946 -1.32638 0.0149404 0.438351 -1.34184 0.0378156 
0.529517 -1.33093 0.355549 0.57154 -1.28966 0.535691 0.9428 -1.25463 0.531367 
[...]
POINT_DATA 1274
FIELD FieldData 10
VELOCITY 3 1274 double
-2.6087126295e-05 1.0129922228e-05 -0.00018548212342 -2.1498107602e-05 1.1012993132e-05 9.0688738769e-07 -0.00023381632126 3.5982304921e-05 0.00050940722625 
-0.00010181187195 4.7935297792e-06 2.7124267062e-05 -0.00012495670639 -4.3061085621e-05 -0.00011120441771 -0.00014185398652 5.8037665219e-05 3.2808187008e-05 
-0.00030000279747 -0.00014710962801 -0.00014185127447 -0.00037194451539 5.3096816088e-05 -0.00014409488486 -0.00019701588609 2.3559752498e-05 -0.00037134742087 
-0.00012502966374 5.0706518406e-05 -0.00031684635721 -0.00023566500128 5.0876248468e-05 -6.6017056572e-05 -0.00033198374087 -0.00013915694539 0.00010733608064 
-2.5719137492e-05 -7.7927291732e-05 4.8411140564e-05 -9.5317128794e-05 2.421109116e-05 1.4593350549e-06 0.00017365083489 -0.00073604734645 -0.00015056283611 
3.8615630407e-05 -0.00022909030505 -6.4247080324e-05 0.00010793879988 -0.0004994562002 -0.00024406594113 -0.00029541628704 -0.00012039372092 -5.9242867742e-05 
-6.5103423472e-05 -0.00028709119669 -6.0259242852e-05 -4.3940960955e-05 -2.0130012729e-06 5.7395669084e-05 9.2128727395e-05 -0.00012825370413 -0.0001208664383 
4.8908510183e-05 -9.3829679384e-05 -0.00010714607682 -0.086861063794 0.019955886998 -0.028347485073 -0.00022930333984 -0.0001384179134 5.8432617696e-05 
-9.0067683508e-05 -6.6718761113e-05 0.00021017458554 -0.045714534142 -0.0092028581724 -0.052129454227 -4.8540580173e-05 -0.00022175416984 0.00014344158955 
-0.00023516967035 -5.9706980362e-05 -2.9707886944e-05 -0.00012919832964 -6.5396879196e-05 0.0001626679366 -0.00084421756848 -0.00012948103628 0.00026250589973 
-0.00027257932089 -0.00010159585325 0.00025950664758 -1.504151704e-05 6.2859795976e-05 -0.00035198376874 -0.00030912699431 -0.0002376626264 8.7360938288e-05 
4.5532254115e-05 -0.00016983099329 -2.6353957518e-05 0.00014586885594 1.1551449957e-05 2.5844825185e-05 1.5887628534e-05 -0.00019826943316 2.685699665e-05 
-0.00017563428932 -0.00016125338567 -0.00022017239002 -8.1060538431e-05 -0.00019460680706 8.0014841725e-05 -0.00027383577124 -0.00020936978453 5.4948836561e-06 
-0.0020063719137 0.00024307256457 -0.0019702798044 9.4127456016e-07 -0.00017916750406 2.756889925e-05 -0.00036248165842 -1.1898310885e-05 8.9253306354e-05 
-0.00025719488512 -7.0125315106e-05 9.0283498016e-05 0.00016788226687 -0.00049651066366 -0.00069263127396 -0.00027537141962 -3.1322336721e-05 0.00056550149793 
0.00039480453104 -0.00033654058819 0.00026306034338 1.3397675619e-05 -0.00015037626734 8.0334032996e-05 -0.00030280301118 -0.00014928150788 0.00016548609301 
-0.00015913178122 -6.7056502446e-05 -0.00014296347216 -3.0067106604e-05 3.4436258967e-06 3.2882149215e-06 5.0854809875e-05 -3.7161076812e-05 2.1808740997e-05 
1.489465964e-05 -0.00040493806018 0.00014445595902 -0.00012497584319 -6.5693119966e-05 -0.00010848583038 1.6137844209e-05 -8.8792369533e-05 7.8071295588e-05 
-0.00018183865559 -5.5470063746e-05 0.00014608519025 -0.00027607488721 -0.00013025132638 -4.0097749257e-05 0.0024117471803 -9.695218801e-06 0.002258499158 
2.4170001671e-05 1.2178504024e-05 3.0230673372e-05 -0.00019170883112 -3.9562689488e-05 0.00011790536259 -9.824360089e-05 5.7228339196e-05 6.288562993e-05 
-0.00010106186331 -2.2030717387e-06 0.00014815409607 -0.00014461263101 -0.00011724605423 6.4700196211e-05 -0.00034395436736 -4.5893354922e-05 9.2015170022e-06 
-0.00010284197369 6.5189804948e-05 5.1636504213e-05 -0.00017681114398 -0.00015248666704 0.00012500752071 -0.00015165112327 -0.00017923563559 -0.00010353216432 
-0.00022073757732 3.0063892951e-05 -1.8789096464e-05 -8.1363317198e-05 0.00010368344333 0.00016450683437 -0.00011518268093 5.8002095208e-05 -1.3432625165e-05 
-0.00011105045384 -2.4145714598e-05 -9.9058410209e-05 -0.00019383841244 4.9416126163e-05 0.00022245761341 -0.00079412216164 0.00012739037778 -0.00032980538622 
1.105709412e-05 -3.0421489814e-05 -0.0001449791094 -0.00018426160372 0.00011630403001 -2.1227621404e-05 -1.3047006859e-05 -6.5077513495e-05 -0.00021311376544 
0.0010833841579 -0.00013737851617 -0.0010171876279 -0.00017392857839 -0.00013467855912 0.0001200970093 3.1602409686e-05 -0.00015207200675 -6.1222116044e-05 
-1.5490821211e-05 3.8646550937e-05 0.00016167887604 0.0003165416974 6.2625450904e-05 7.6297255136e-05 -0.0003554039821 -6.2473088956e-05 3.9560932232e-05 
-0.00026504389865 -6.2616414721e-05 1.5707330541e-05 -0.00024002701369 -0.0001172818297 0.00013924826228 -3.885852787e-05 -0.0001321410478 6.6722126384e-05 
-1.066913177e-05 -0.00022116716849 -8.5816653395e-05 -0.00022651078926 -6.7669685317e-05 -7.6109145501e-05 0.00028363986801 -0.00020766779176 -0.00019990955794 
0.0001675508204 -0.00015103608462 0.00014125753027 7.6756127074e-05 -0.00014688793036 0.00016506884884 -5.9301107717e-05 -0.00028801588408 -5.0123521461e-05 
-0.00023235920927 4.3789169667e-05 -0.00014368953031 -2.5114095732e-05 -4.1352473206e-08 0.00019891072855 -0.00017897343925 -0.0001046987275 5.0452703761e-05 
-1.8696955678e-05 -0.00038520534637 -0.00032573228738 -3.9495561419e-05 7.7387956986e-05 0.00014490149699 -0.00014824663493 -0.00025117355077 -0.00024156429206 
-3.9695132107e-05 0.00011975234218 -0.00011037410596 0.00016975841592 -7.805309869e-05 0.0002227642651 -2.318575457e-05 0.00013104934431 -0.00030777357522 
-0.0004263244452 0.00016929864314 7.9423049573e-05 -0.0016472844282 0.0011522841972 -0.00014595786812 -9.0621337383e-05 -8.7848926444e-05 -0.00019005413207 
-0.00022869998862 7.3919649511e-05 0.00013256487147 2.7657532938e-05 -0.000300321483 -9.3653960237e-06 2.2354657207e-05 -0.00014491027392 -0.00015742163568 
-7.9336264219e-05 -0.0004675530679 -0.00015868338407 -3.0444768073e-08 6.6747883331e-05 -7.4024926104e-05 2.1815609763e-05 -4.8318314751e-05 -0.00015633140637 
-1.608785336e-05 -0.001372528164 0.0010951179064 7.0955084322e-05 -6.6611734409e-05 -1.960830728e-05 -0.0021629338943 0.0012024659365 -1.4887143055e-05 
6.613592426e-05 -0.00033564957321 -0.00056584045174 -0.0001306170798 -0.00023374296577 1.6088849974e-05 -0.00060072546917 -0.00045714928724 0.00015017667847 
2.3367476494e-05 2.6421137213e-06 -1.1477436417e-05 4.6544544305e-05 -5.553484574e-05 -0.0001901171456 -3.7012791649e-05 -0.00011328693525 -9.6071726515e-06 
4.2475505468e-05 -8.2900319247e-05 -0.00015443435002 -0.00024915724934 -0.00012832918361 0.00038045557387 -0.00018478571446 -0.00029191229562 -0.00030233199403 
0.00016584531824 -0.00028873715552 -8.3343763709e-05 0.00010248331362 1.3877188896e-05 -0.00027544668167 -0.00014209141567 7.072468968e-06 -3.8582363491e-06 
-0.00010370843721 -0.0002221847242 -5.1833367609e-05 -0.00014384526886 -1.2307694076e-05 0.00016128143934 0.00027090485716 -0.00063858416372 -0.00013817677375 
-0.00010150847806 -6.9489179284e-05 -1.7732310707e-05 -0.00013778042308 -0.00057049144935 -0.00060410268965 -0.00020224208879 1.1522177417e-05 0.00015728560288 
-0.00034074306471 -0.00011044958313 -4.6421687809e-07 0.00012244146831 -0.00018911280938 -0.00017763754505 -9.2602213345e-05 8.268654624e-05 -1.5019560456e-05 
-0.00027422116311 -0.00022400260497 -0.00013697477357 0.00012093530993 -6.5869304571e-05 -2.9729049195e-05 -0.00030429111589 -0.000119188379 -0.00028464994773 
-5.4386688698e-05 -0.00020174075343 0.00013549795186 -1.6074001902e-05 -2.6316552721e-05 3.938838165e-05 -5.7510123567e-05 6.3674372052e-05 -9.9740984539e-05 
2.7931459935e-05 -9.5687577802e-06 6.7466065821e-06 1.351056162e-05 3.7361690768e-05 0.00023066407712 -2.1096786947e-05 -0.00010306222743 2.8999291131e-05 
-0.00011875213168 1.5191766634e-05 -0.00013615911845 4.3667128421e-05 3.1032521778e-05 5.8109620845e-06 -0.00012990581185 7.9669013644e-05 -5.4833688966e-05 
-7.6260610931e-06 1.7331749019e-05 -1.8875449258e-05 -4.1373987188e-05 2.3737743867e-05 -0.00012412960238 1.452961965e-06 -5.7734917396e-05 -7.1488913037e-06 
8.1858848378e-05 -9.4937251039e-06 9.8912630653e-05 -0.00011545176972 -2.2545832292e-05 4.8233459394e-05 -0.00010463138858 -2.1959533364e-05 -0.0001143499889 
2.6171710167e-06 -0.00019086570766 0.00016646812761 -1.6298411718e-05 2.2266934842e-05 -4.3708461786e-05 -0.00026822952378 2.3994000316e-05 -0.00012085386239 
6.5840955832e-05 -0.00013245164085 -0.00010472358614 -7.1718556504e-05 -1.4383056091e-05 2.6082053069e-05 -0.0001967161147 -8.5393761452e-05 -8.8931380743e-05 
-8.5937617024e-05 -3.3875202346e-05 0.00014423401108 -0.00013059326326 -2.7796350693e-05 2.2346926708e-06 -2.6288300662e-05 -4.4361068768e-05 -5.6539994442e-05 
-0.00021336556171 -8.3609007537e-05 -4.306098715e-05 -0.00011156236302 -7.6759546874e-05 -6.0718450548e-05 8.4015036062e-05 -0.00025442157091 -0.00034104845605 
-8.2371742691e-05 2.8568345649e-05 -0.00015938516437 0.00012881681358 -0.00011763038217 -8.9136044377e-06 -0.00017923781592 1.3066553916e-06 0.00010270780969 
-0.00018887693508 8.1226818922e-05 -0.00011894536778 -0.00010107469839 4.3139439774e-05 -5.0475279792e-05 -6.9352227718e-05 -6.8438332157e-05 -2.0146785377e-05 
-2.5154005353e-05 -1.5457555183e-05 -0.00023492946316 -0.00029215547313 -3.9496492862e-06 0.00023873002691 7.9001613024e-05 -7.1293837574e-05 -5.4770388778e-06 
-0.00018911042966 0.00010975624067 -3.2918711455e-05 -0.00018501624984 9.6019815578e-05 0.00020513562203 -0.00038105524151 4.915818598e-05 -1.5956925784e-05 
-0.00018006009846 5.0323047725e-05 -0.00011607168522 7.9021482065e-05 -0.00015810632785 -2.5932263665e-05 -0.00020639523284 -1.6914376349e-05 8.2464435706e-05 
0.00022490102494 -0.0001922394248 0.0001909184121 -0.00017471413007 -5.156555785e-05 -5.242150541e-05 3.6527539312e-05 -0.00014897393344 0.00016618485639 
-0.00013762678035 -5.9895977781e-05 0.00011455009327 -0.00010173750175 -9.9316638243e-05 -3.0200779049e-05 -0.00011791221704 -1.3778542409e-05 -0.00012051520656 
2.1719510557e-05 -0.00035954525883 3.8012929097e-05 -6.7939799177e-05 -0.00019863521851 2.1912206101e-06 0.00015247299216 6.2592203984e-05 9.7579179339e-05 
-3.0774360705e-05 -2.5517872359e-05 0.00011363602152 -9.1182756105e-05 1.546599028e-05 5.8154402497e-05 0.00015907456122 -0.00029021656331 -0.00015420907355 
4.4114640906e-05 -1.3271694221e-05 1.0188973581e-05 4.1428535943e-05 -4.0101462557e-05 0.00029999835426 -0.00025750983761 -0.00024034487507 -0.00018084842084 
-9.7622069939e-05 -9.4305614486e-05 -0.00016796449454 -3.6587820795e-05 -1.2806579283e-06 -5.7398165837e-06 3.8577934868e-05 -3.6371936446e-05 -0.00014547762121 
0.0001578865239 -0.00060687687379 -0.0008447657328 -0.00036139066799 -0.00047082687123 -0.00055540319775 -2.2959144598e-05 1.0031208565e-06 0.00017308543605 
0.00010822786875 -1.3548184001e-05 -2.4617224328e-05 5.5052996157e-05 -0.00011053149113 -0.00014215490423 -5.2432596918e-05 -3.0359163804e-05 0.00022786304452 
-5.7500341802e-07 -7.159856767e-05 -0.00021911129061 0.00043707903817 -0.00062866856076 -0.0009691347089 8.7223731082e-05 -4.6219548189e-05 0.00019713151368 
0.00011569160291 -0.00016092728093 4.2761720766e-05 -0.00089710381724 0.00050018122967 -6.0956744276e-05 -0.00012875142445 -0.00018676961368 -0.00028462481006 
-6.1283917485e-05 -7.0845880016e-05 9.8916780748e-05 -6.0483904669e-05 -7.8872276233e-05 1.4148172703e-05 0.00011621808916 9.0647580613e-05 0.0001164466967 
-0.00015219998031 -0.00020433113722 -0.00024921769293 -1.8356422368e-06 -0.0002033446631 2.5934208792e-05 -0.00051040533532 -8.1439947629e-05 0.00017625368644 
-7.7294535727e-05 -0.00019825416413 -0.00016118671479 -0.00026674670157 -2.8277469852e-05 8.1229349942e-05 -1.4491331839e-05 8.7364038795e-05 5.1433736861e-05 
3.7293079202e-05 -0.00011545820222 -0.0001347414448 -0.00011745673867 6.9259486685e-06 -1.6655697169e-05 1.5722255e-05 -0.00027383061576 0.0001547151349 
3.3463622519e-05 -0.00018327860814 -9.2640704174e-05 -1.619077705e-05 -2.8772814862e-05 -5.4677946518e-06 -2.4645046954e-05 4.5287746744e-05 8.2320418835e-07 
-6.9487729959e-06 4.8253233618e-05 -0.00015811663547 -0.00030795145381 -1.0796034809e-05 7.8537454064e-05 -0.00023366384862 0.00019991520582 -0.00015045107633 
-0.00010904209185 -1.8622570886e-05 2.3236714718e-05 1.108938201e-05 0.00015786019481 -4.3874738076e-05 -0.0001095590827 -7.731387229e-05 -0.00022315665031 
-0.00011169664496 -9.0903012336e-05 5.6386713755e-05 -0.00061799765893 7.3975385233e-12 0.00080473983807 -0.00020366977374 6.6420631057e-05 9.0237012273e-05 
-2.3377342557e-05 -4.5581047992e-05 -7.2187829238e-05 -0.00012880612683 0.00019443660057 -4.3313488698e-05 -0.00012431930336 -1.5094284069e-05 3.5463302145e-05 
-0.00015206102066 2.8897133289e-05 -8.1682160478e-05 5.8482638899e-05 -0.00013388973494 0.0001736996819 7.242159548e-05 5.1270375196e-05 4.5253653525e-05 
-0.00010590566924 -3.8210171481e-05 2.5804325595e-05 -2.0016444449e-05 2.043139032e-06 0.000164671673 -0.00014881379502 2.1101350096e-05 7.8551504702e-05 
-0.00024696803196 -3.3775649744e-05 0.00010403863136 -0.00030767651594 9.7189485246e-06 0.00010575573095 -0.00020953079505 -3.6099613601e-05 -4.2035299528e-05 
-0.00034167923913 3.2046673916e-06 0.00010800909919 0.00013623887602 -1.3090929838e-05 -0.00013003774657 -9.7751025197e-05 -9.7062251176e-05 2.172915065e-05 
-4.1100908037e-05 -4.5360707371e-06 5.5166462151e-05 4.7896466624e-06 -9.7321191995e-05 -1.9822511077e-05 -7.3595198971e-05 -1.8706905246e-07 3.0037874764e-05 
8.8460728165e-05 -6.2883441503e-05 -2.1142982748e-05 -0.0001736773608 -6.4118947065e-05 -8.3328222152e-05 -0.00019176072522 -6.751961406e-05 6.2399502882e-05 
-5.7415399656e-05 -2.1124860443e-05 2.0120878346e-05 -0.00030336284974 -4.3505541706e-06 -1.904410644e-05 0.00013843895364 -0.00015415068896 -7.3679264999e-05 
-0.00025486395463 -0.0001091553921 5.8050908384e-05 5.4178228828e-05 0.00019157816441 -0.00021823804742 -0.00039573449271 8.1863079054e-06 -0.00041348127932 
-3.040295159e-05 -0.00016335963996 -0.00012013524886 -0.00033587824172 -1.1391236797e-05 -2.9907599536e-06 -0.00024641374711 -9.073924128e-05 0.00016419501406 
-0.00024466949437 -7.6128542951e-05 -6.1131800796e-05 6.1089061467e-05 -0.00025633664733 -7.3457441451e-05 -2.4444729736e-06 -6.0800508028e-05 8.1128212778e-05 
-0.00020616848597 7.6148990572e-05 -4.335957842e-05 -0.00055425107837 0.00021458892461 -7.9137032321e-05 0.0001571373308 6.0325200326e-06 7.6978864252e-05 
-8.3461526562e-07 -5.5326670849e-05 -0.00012135974177 -0.00010431401969 -4.4327335736e-05 9.8516689462e-05 -0.0002047328726 -8.7761034913e-05 -1.7736083596e-05 
-0.00019733618042 -0.00027071762285 1.9758677671e-05 -4.5096240345e-05 0.00011823599016 -0.00020145937924 5.1602904616e-05 -0.00021877175004 -0.00021194391968 
7.5866372478e-05 -0.00014666350962 -4.1407695182e-05 0.00010614986054 -0.00019054313612 -0.00038693439369 -0.00013482919781 4.7907670386e-05 0.00012490190798 
-0.00011043715758 3.188325276e-05 0.00010381174185 -0.00033721952066 -5.5749834144e-05 6.5328153746e-05 -0.00015599423718 1.5106444718e-05 6.8941920633e-05 
0.00019910129657 -0.00042184604195 -0.00012904062789 6.9024834906e-05 3.5470590728e-05 -0.00022166358304 -0.00020832647185 -4.8863742168e-07 -0.00013916053296 
0.00011890111314 -0.00025151637997 -5.7974593886e-05 1.0539334799e-05 7.8670566687e-05 0.00021517326025 -1.7712283131e-05 -0.00023748635734 -0.00026362094185 
2.5754532604e-05 -0.00010707313745 9.5980561496e-06 0.00014110965984 -0.0001040975893 1.3629083717e-05 -0.00011710203832 7.490789076e-06 0.0001922693411 
-0.0002085599196 -0.00018731193351 -0.00023229553352 8.0829195344e-06 0.00010336441582 -0.0002840958728 -6.952075534e-06 1.2728134446e-05 0.00025087915943 
0.00014021239553 -0.00018820693475 -0.00014318725615 -1.256932226e-05 -0.00023052800327 0.00022811990519 -0.00047693692619 -3.9297936498e-05 -0.00010459742785 
-0.00011847074545 -9.2381769935e-05 8.6466132454e-05 -2.4805346102e-05 9.0486805038e-05 3.5532259123e-05 0.003567570779 -0.0041958236205 0.015270159622 
8.4122486872e-06 -1.676701986e-06 -0.00026755578474 -0.00013550560672 0.00016839465583 -8.6179783628e-05 -5.6393114757e-06 -1.4637902404e-06 -4.6989751175e-06 
-6.5695961052e-05 1.1024882684e-06 0.00019384205596 -0.0001455930512 5.7893523279e-05 -1.4333977155e-05 -3.5573770191e-05 1.9125343068e-05 0.00024740750581 
8.9629432855e-05 2.1285556118e-05 -0.00012346224312 -5.583040237e-06 6.9911393092e-05 6.6605641213e-06 9.25260621e-06 2.9572892803e-05 -1.5508533239e-05 
3.6924271797e-05 -3.404023975e-05 -3.8722530052e-05 -6.2007420485e-05 1.8266677948e-05 -1.1150179325e-05 -0.00017863718881 -3.4774589416e-05 -2.9689984052e-05 
-4.4760292439e-05 -1.1744452172e-06 0.00017696450979 7.773799522e-05 1.542862804e-05 5.6858561321e-05 -0.00019524332821 8.7669638325e-06 -0.0021553549564 
-0.00010446154582 -7.0161139631e-05 8.5111145413e-05 1.3536965958e-05 -6.4090520087e-05 2.8296009143e-06 -7.016386002e-05 9.3336197038e-05 3.1439701848e-05 
-0.00013516464331 -1.9756203361e-05 -3.4715353938e-05 7.5098847617e-06 2.2699273598e-05 -4.3638096402e-05 -6.6211688736e-05 4.2944824063e-12 -0.00029810141837 
7.0999112393e-06 4.0985006542e-05 -2.3676637492e-05 -9.566270366e-05 1.5309491377e-05 4.7550402511e-05 1.5649700784e-05 1.8752151153e-05 0.00012367330809 
7.2709547956e-05 -6.1649216388e-06 -0.00024259342055 -8.9764889724e-05 -1.3478337294e-05 -0.0001922348935 -0.00010679943154 -5.9886827815e-05 -1.4724052205e-05 
-9.6264448651e-06 -2.5747147063e-06 -3.8086327803e-05 -5.3365126408e-05 -0.0002089614027 6.9052157197e-05 -0.00018213193999 -2.8447032839e-05 7.0942316396e-05 
-7.7864456003e-05 9.860287231e-05 -4.4795104547e-05 -0.00022673910439 9.4513631492e-05 4.8287468961e-05 -4.0073959841e-05 1.2318845674e-05 8.4627500526e-05 
-0.00021869541051 2.3755659656e-05 0.00021516970519 -0.0002430849772 -3.2959127066e-05 -6.0338801173e-05 0.00012351032102 -7.0029510203e-06 8.0346873009e-05 
-4.1327161298e-05 -0.00015014326537 -6.6527147786e-06 -0.00014709910165 3.900320301e-05 2.7423171751e-05 5.8225278101e-06 -1.0389833015e-06 3.9492891334e-05 
-0.00016296668422 -3.8307242411e-06 1.4269858324e-05 -0.00019834508833 1.9255074692e-05 -4.4778433229e-05 -0.00015193705801 -4.8940013588e-05 5.4087439181e-05 
0.00012562357509 -0.00015964352245 -6.1945611149e-05 -8.5759730458e-05 -2.6311596421e-05 0.00012320123726 -5.4614649079e-05 -0.00031658327743 -0.00018605862579 
-0.00012490503222 7.709963195e-08 -4.0797362705e-05 -3.5834350806e-05 2.1296546449e-05 5.3848778065e-05 -0.00040433257236 -3.5759599469e-05 0.00021497607889 
-0.00030659992167 6.7386731167e-05 4.9629332766e-05 0.00018471821778 0.0001680334215 -0.00017639661863 -0.00012810182228 5.8614383864e-07 -2.6141531075e-05 
-8.8897443021e-05 5.7089803505e-05 0.00011231365795 -0.000127365322 -0.00010045993088 0.00012326077218 -0.00012479244683 3.4870537183e-05 -1.5117492688e-05 
-6.0880559714e-05 1.4474834979e-05 9.7631218751e-05 6.2919831065e-05 7.0056084037e-05 -9.791338338e-05 5.6915687769e-05 3.1734380574e-05 -9.1229569827e-05 
-0.00022537977096 -0.00028690652373 4.4665673648e-05 -4.5001097491e-05 -0.00011588374149 1.2017486884e-05 -1.8989475284e-05 -0.00012575172401 3.3753297051e-05 
-5.7148331807e-05 -2.0504420143e-05 0.00010926263964 -0.00030390319472 -0.00010619824106 0.00019474681255 0.00017924273982 -3.7140212715e-05 -9.2719067407e-06 
0.00033597878602 -0.00022072584934 -0.00047761684412 -0.00021607733903 -0.00036945756333 -0.00019731324517 -0.00026564238704 -0.00012120931556 4.9737639078e-05 
7.2036521096e-06 1.8847664518e-05 -0.0002062462067 -0.00011126941306 1.8831011305e-12 4.9845776729e-05 -7.5868902896e-05 -6.1301766778e-05 -0.00028624897109 
-0.00011303874639 5.2908400985e-05 0.00018458078949 -0.00012919237468 9.9307668651e-05 -0.00016799620013 -8.1144712773e-05 -3.0056137081e-05 -0.00012850506402 
-6.4830965696e-05 -4.50222078e-05 0.00018852649235 -0.00018677082747 -0.00018940181201 1.9415972802e-05 -9.8606235207e-05 -3.4504009387e-05 -1.4812546293e-05 
0.00013366314606 4.7090852684e-05 -4.572359632e-05 -2.6190645646e-05 5.0895918476e-05 -3.422075126e-06 -0.00019704395295 -4.0822587241e-05 -7.2031746752e-05 