# vtk DataFile Version 4.1
vtk output
ASCII
DATASET UNSTRUCTURED_GRID
POINTS 1274 float
0.273691 -1.29445 -0.0532967 0.273708 -1.3022 0.0958856 0.279392 -1.29495 0.317533 
0.157826 -1.31608 -0.211051 0.298443 -1.29136 0.178149 0.411519 -1.23452 -0.0670202 
0.38138 -1.2911 0.322107 0.470005 -1.23549 0.492986 0.512118 -1.24366 -0.0080896 
0.637032 -1.25336 -0.00565381 0.538855 -1.34671 0.187566 0.641193 -1.22269 0.43424 
0.852402 -1.2726 -0.151208 0.843447 -1.25445 -0.0829423 0.657708 -1.2964 0.158066 
0.755445 -1.27584 0.265856 0.696154 -1.27026 0.218728 0.793776 -1.20795 -0.0448969 
0.637058 -1.20761 -0.0560692 0.67238 -1.34643 0.00779663 0.71526 -1.19076 -0.0822141 
0.690725 -1.30817 0.278202 0.391009 -1.23456 0.281877 0.615192 -1.27213 0.224814 
0.912794 -1.23666 -0.0764322 0.301089 -1.2505 0.128405 0.657513 -1.20791 0.363645 
0.814027 -1.195 -0.113174 0.921213 -1.31395 -0.000275103 0.822794 -1.22936 0.0380465 
0.971669 -1.20858 -0.0149819 0.656932 -1.22807 0.046622 0.557524 -1.21903 0.378501 
1.0824 -1.22289 -0.287872 1.03366 -1.24154 -0.141532 0.503993 -1.2214 0.280692 
0.789831 -1.27886 -0.0126411 0.634891 -1.27389 0.285654 0.405206 -1.25075 0.137799 
0.951936 -1.20277 0.0594922 0.851365 -1.22686 -0.208436 0.798087 -1.23313 0.160132 
0.838124 -1.21213 0.10881 0.748355 -1.22102 0.215963 0.903335 -1.24345 -0.00521994 
0.985327 -1.2383 -0.236458 0.891741 -1.25243 0.291592 0.886585 -1.21794 0.230279 
0.45194 -1.2994 -0.306763 0.167807 -1.33258 0.280778 0.145295 -1.35891 -0.0654372 
0.0370367 -1.33485 0.1737 0.286322 -1.34238 0.471594 0.255821 -1.33815 0.385003 
0.239834 -1.31339 0.164994 0.379582 -1.35341 0.285102 0.153398 -1.34835 -0.272837 
0.359453 -1.41001 0.0556585 0.611756 -1.28942 -0.213193 0.21777 -1.35346 -0.222051 
0.399502 -1.34728 -0.151294 0.37156 -1.35524 0.404669 0.399114 -1.29304 0.394596 
0.278091 -1.34831 0.208924 0.213382 -1.33841 0.00550575 0.485066 -1.26624 -0.187323 
0.413184 -1.3608 -0.0237369 0.58341 -1.34512 0.299893 0.433178 -1.28264 -0.142614 
0.304102 -1.28408 0.243123 0.552659 -1.36024 -0.0193904 0.376622 -1.27371 0.194409 
0.331405 -1.29839 0.0617546 0.330485 -1.2619 0.445491 0.508647 -1.2275 -0.0834394 
0.623474 -1.4128 0.0996397 0.543837 -1.25122 -0.24065 0.212462 -1.28188 -0.175313 
0.568435 -1.35597 0.0415829 0.541535 -1.30128 -0.0340377 0.32794 -1.26215 0.297829 
0.451285 -1.28847 0.450288 0.579769 -1.33506 0.469948 0.446519 -1.28097 0.264233 
0.511097 -1.29956 0.290977 0.451912 -1.36114 0.112117 0.615819 -1.30373 -0.0477874 
0.643842 -1.2274 -0.214024 0.972712 -1.28517 -0.284493 0.570427 -1.28641 0.172241 
0.474847 -1.28629 -0.250682 0.764571 -1.28925 0.34391 0.645494 -1.32734 0.220662 
0.577107 -1.23885 -0.0538751 0.999444 -1.26672 -0.0443584 0.741685 -1.25473 -0.0610524 
0.684796 -1.29043 0.0494229 0.876543 -1.3492 0.162086 0.603177 -1.25473 0.0797063 
0.780252 -1.23222 0.388037 0.790702 -1.24156 0.464745 0.54554 -1.26311 0.232788 
0.826003 -1.35952 0.207722 0.622004 -1.22521 -0.144807 0.687869 -1.23265 -0.033174 
0.553129 -1.24084 0.123734 0.732405 -1.23673 0.0211918 0.808442 -1.30048 0.177955 
0.828875 -1.25051 0.3408 0.681254 -1.26711 0.329787 0.8092 -1.22666 0.532537 
0.912635 -1.24745 -0.369639 0.769566 -1.30997 0.0489911 0.437624 -1.25604 0.192627 
0.723891 -1.22675 0.535002 1.16355 -1.2212 0.0117112 0.628918 -1.26638 0.530086 
0.734236 -1.2257 0.317625 0.704892 -1.24509 0.415677 0.5789 -1.24346 0.015325 
0.958736 -1.29284 0.219359 1.10576 -1.23871 -0.167184 0.838925 -1.30531 0.0441812 
0.97686 -1.2261 -0.0923194 0.908234 -1.28983 0.0618048 0.616267 -1.23687 0.147417 
1.32158 -1.19723 0.526062 0.738717 -1.25647 0.160976 0.940092 -1.22536 0.19394 
0.952197 -1.20838 0.423027 1.21199 -1.26358 -0.182882 0.905073 -1.23204 0.0977154 
1.04501 -1.22593 -0.00804064 0.863871 -1.23346 0.171973 1.10044 -1.25832 -0.0323495 
0.963329 -1.26303 0.0318285 0.0866736 -1.41341 -0.246644 0.285896 -1.36067 -0.213131 
0.43007 -1.40919 -0.397639 0.0351688 -1.35955 0.315523 0.213229 -1.32118 0.482541 
0.0966345 -1.40799 0.156633 0.216653 -1.34412 -0.402017 0.500382 -1.31852 -0.34826 
0.0870854 -1.35983 -0.381516 0.49367 -1.34761 0.459684 0.251018 -1.27901 0.529061 
0.147177 -1.35436 0.379475 0.241035 -1.41179 0.297761 0.0966397 -1.35822 -0.0126036 
0.276954 -1.3201 -0.156552 0.0800887 -1.35881 -0.288993 0.47214 -1.35384 0.309861 
0.34861 -1.40768 -0.0292469 0.129601 -1.34345 0.230526 0.213206 -1.33464 0.0980947 
0.219578 -1.29566 0.291471 0.320494 -1.29145 -0.294926 0.270938 -1.34801 0.0404475 
0.422444 -1.31829 0.16609 0.08252 -1.29267 0.215253 0.515635 -1.30065 0.418956 
0.89318 -1.3002 0.533049 0.546984 -1.3557 0.420379 0.240768 -1.29491 0.228702 
0.318138 -1.35522 0.157005 0.318836 -1.35427 0.0926455 0.367068 -1.28848 -0.232335 
0.52026 -1.33291 -0.241367 0.492583 -1.2928 0.204085 0.548557 -1.22587 0.527673 
0.644546 -1.28729 0.408219 0.776829 -1.34076 0.46216 0.423687 -1.34425 0.228909 
0.676845 -1.41468 0.1365 0.588795 -1.22231 -0.397363 0.601122 -1.35845 0.188474 
0.85423 -1.22704 -0.316263 0.390893 -1.29518 -0.29843 0.828424 -1.29975 0.283791 
0.75908 -1.28958 0.419811 0.332721 -1.28437 -0.172026 0.571301 -1.27627 0.288704 
0.670134 -1.27265 -0.166663 0.490129 -1.24966 0.145398 0.879505 -1.29188 0.214273 
0.970352 -1.38756 0.0887049 0.535629 -1.28034 0.0564708 0.995074 -1.25527 0.443841 
0.648743 -1.33019 0.341091 0.941781 -1.29607 -0.0631137 0.671737 -1.21077 -0.283761 
0.725663 -1.22904 -0.145175 0.791287 -1.30418 -0.0807022 0.820902 -1.34984 -0.0454533 
0.739906 -1.31834 0.178022 0.702738 -1.35507 0.138492 0.859667 -1.2991 -0.0262937 
1.00889 -1.24926 0.0866221 1.06212 -1.27489 0.0386046 0.912289 -1.25103 -0.140127 
0.786904 -1.28881 0.114923 1.10914 -1.2849 0.393969 1.0043 -1.24677 0.18898 
0.818593 -1.24335 0.228998 0.69847 -1.25827 0.110984 0.931509 -1.36149 0.216378 
0.85725 -1.28509 0.118916 1.19582 -1.36098 0.117212 0.947548 -1.35374 0.143707 
1.1238 -1.25903 -0.0980597 1.02647 -1.26085 0.275338 0.763099 -1.22443 0.0951204 
0.993043 -1.35415 0.196438 0.297585 -1.4153 -0.358856 0.199591 -1.37216 -0.327219 
0.0322034 -1.4135 -0.0345738 0.441353 -1.28069 0.531353 0.033986 -1.41171 0.191295 
0.0880255 -1.32437 -0.10701 0.340215 -1.30686 -0.394474 0.0369042 -1.36212 0.0211661 
0.0326481 -1.34525 0.488275 0.346451 -1.40639 0.198492 0.151731 -1.41314 0.444412 
0.32394 -1.34691 0.532516 0.0880999 -1.39516 0.227326 0.32659 -1.35887 -0.265523 
0.218198 -1.35075 -0.129061 0.248187 -1.41429 -0.201515 0.124869 -1.33759 0.152998 
0.311928 -1.29153 0.502007 0.0914972 -1.33725 -0.21981 1.0055 -1.41418 0.472961 
0.23412 -1.40735 0.202618 0.218271 -1.34165 -0.0602686 0.403434 -1.35845 -0.282323 
0.15096 -1.32354 -0.00109392 0.582365 -1.41374 0.215374 0.469023 -1.4131 0.144612 
0.452349 -1.28906 0.341057 0.273897 -1.35694 0.322754 0.19432 -1.36247 0.157593 
0.311534 -1.34571 0.270424 0.802497 -1.4127 -0.226467 0.190242 -1.3881 0.264683 
0.356587 -1.34236 -0.0620881 0.161688 -1.30576 -0.120801 0.394478 -1.41526 -0.141396 
0.293225 -1.35427 -0.0873631 0.465445 -1.33984 0.396033 0.479174 -1.2549 0.394897 
0.297884 -1.3599 -0.0221452 0.358489 -1.34945 0.0162732 0.800857 -1.29757 -0.212191 
0.37896 -1.36167 0.155179 0.336238 -1.34529 -0.179581 0.352613 -1.29995 0.131947 
0.377619 -1.29363 0.256161 0.347401 -1.33269 0.211651 0.526015 -1.23579 0.436698 
0.447907 -1.29513 0.108875 0.734848 -1.25923 -0.21036 1.05806 -1.36701 -0.147662 
0.310263 -1.30423 0.00397961 0.443753 -1.30484 -0.0198053 0.836496 -1.41477 -0.140672 
0.613578 -1.3623 -0.0114258 0.650018 -1.36312 0.275163 0.501544 -1.35074 0.244419 
0.518363 -1.26069 0.345301 1.14794 -1.36796 0.380258 0.628731 -1.36889 -0.0746293 
1.12051 -1.28377 -0.219227 0.725227 -1.29677 -0.116507 0.853632 -1.32463 -0.107678 
0.686971 -1.36359 -0.0514765 0.746342 -1.3416 -0.00649209 0.897879 -1.35459 -0.0555625 
1.05002 -1.2361 0.46754 0.635944 -1.31483 0.0923111 0.841062 -1.41501 0.254058 
0.65273 -1.25801 -0.0945337 0.895573 -1.35379 0.0898117 1.0982 -1.31893 -0.00103345 
1.01076 -1.31112 0.00852805 0.813339 -1.37071 0.0466103 0.753472 -1.33956 0.10196 
0.695644 -1.29829 -0.0352335 1.05049 -1.34979 0.154959 0.854849 -1.41217 0.0913567 
1.1805 -1.23151 0.410086 0.994584 -1.29003 -0.106071 1.09758 -1.40835 0.172965 
0.963298 -1.37555 -0.0367023 0.971532 -1.31629 0.0849853 0.859312 -1.20947 0.455463 
0.0341699 -1.37735 -0.227679 0.0314946 -1.41421 -0.173396 0.0354917 -1.41021 0.467888 
0.0724239 -1.41424 0.307762 0.083896 -1.3714 0.528368 0.0998786 -1.41553 0.479637 
0.0769971 -1.41064 -0.339151 0.166908 -1.39476 -0.39495 0.384436 -1.36053 -0.403686 
0.0336249 -1.41208 -0.285905 0.0513476 -1.41294 0.0665736 0.264797 -1.4091 0.470981 
0.035591 -1.41055 0.363928 0.24018 -1.4087 0.370423 0.14269 -1.41182 0.527138 
0.301296 -1.35415 -0.332211 0.142927 -1.41429 -0.331468 0.145813 -1.41471 -0.26913 
0.640472 -1.41014 -0.320201 0.424303 -1.41293 -0.237061 0.115844 -1.41367 0.0604745 
0.0974834 -1.34393 0.4221 0.39208 -1.33181 0.529311 0.109644 -1.35188 0.315573 
0.500961 -1.4062 0.400712 0.175034 -1.37139 0.0533966 0.31025 -1.40789 -0.168352 
0.292569 -1.41419 0.0897302 0.209825 -1.40944 -0.0930602 0.355207 -1.34888 0.469578 
0.316721 -1.32227 0.415514 0.291474 -1.40986 0.249617 0.713841 -1.35034 0.518647 
0.207172 -1.3518 0.332019 0.410994 -1.35009 0.349659 0.453611 -1.34853 -0.224195 
0.383518 -1.35579 -0.218958 0.0654763 -1.35875 0.109046 0.455343 -1.40706 -0.173023 
0.243219 -1.3527 0.267298 0.263626 -1.35817 0.128569 0.420543 -1.35381 0.450597 
0.336718 -1.32093 -0.122275 0.45729 -1.41043 0.0499037 0.621466 -1.28606 -0.382242 
0.523354 -1.29209 -0.290441 0.569909 -1.41475 0.0649375 0.518811 -1.2859 0.489591 
0.648229 -1.41098 0.225393 0.550339 -1.35132 -0.29669 0.45662 -1.41397 0.209136 
0.680596 -1.36145 0.394768 1.07273 -1.29135 -0.269892 0.462947 -1.28389 -0.0797431 
0.427941 -1.3414 -0.0860092 0.501912 -1.32634 0.014902 0.438324 -1.34184 0.0377581 
0.529322 -1.3312 0.355559 0.571467 -1.28974 0.535691 0.942796 -1.2548 0.531367 
[...]
POINT_DATA 1274
FIELD FieldData 10
VELOCITY 3 1274 double
-4.5820239421e-07 -2.3654396773e-05 -8.2990793761e-05 -0.00027017576576 3.6044795454e-05 6.345025911e-05 -0.00017715201061 -2.5672541213e-05 0.00011694816621 
-1.0058693049e-05 5.44052754e-05 7.4630406176e-05 -0.00013498324296 -1.9190159721e-05 3.838573211e-05 -0.00017596693916 0.00010009528771 0.00021150134626 
-0.00022816756867 -3.3436287687e-05 -1.5569208541e-08 -0.00029960089756 -2.6981222026e-06 -0.00014784592023 -9.0409110076e-06 7.0886975514e-05 -0.00018166795466 
2.292243578e-05 -0.00010491947049 -0.00012772655877 -0.00014828121124 3.7088925801e-05 1.9819649165e-05 -0.00019815474481 -0.0002986036115 -0.00010444036888 
3.0658175285e-05 -0.00012095601907 2.9711396537e-05 -0.00010006479746 1.1074949739e-05 -1.7571270159e-05 -7.7978622425e-05 6.2069585448e-06 3.9093457999e-05 
-1.6627133421e-05 4.6905755087e-05 -4.5592868006e-06 -2.7491591077e-05 8.4545342967e-05 -3.3217093966e-05 -0.0002986444164 -0.00013830628725 -4.3804136638e-05 
-5.7363570023e-05 -0.00023756121281 -0.00033308335208 -5.4569745848e-05 -3.9166348167e-05 4.1406118432e-05 0.00020761229299 -0.00021738165249 -0.00019077832145 
6.8334954144e-05 -6.8524181448e-05 -0.00020261255012 2.9198514651e-05 -2.3522998005e-05 9.6715438444e-05 -0.00013803276605 -3.6551954867e-05 5.3484917848e-05 
-0.00011794282808 -9.7708764182e-05 0.00020641773378 -0.0001747013471 1.0524136834e-05 5.1280271004e-05 -5.0977303702e-05 -0.00011340371987 -7.8193104834e-06 
-0.00030291582596 -0.00010700279253 -4.941031124e-05 -0.0001055736334 -6.5581368475e-05 0.00010043140393 -0.00046172986014 -8.6934363324e-05 -4.8599834069e-05 
-0.00017859358064 -5.1378210607e-05 0.00019562250227 -2.3751071066e-05 3.4167920785e-05 -0.00019591947391 -0.00027234329307 -0.0001511916985 5.45553495e-06 
2.0709868374e-05 -0.00020242442313 -7.6407927337e-05 0.00020511180724 0.00010407157365 -6.0657492112e-05 6.2288711673e-05 -0.00017606479705 1.9844803329e-05 
-0.00012281421088 -0.00019640684678 -0.0001941448623 -6.3383713069e-05 -0.00017514501645 2.855915192e-05 -8.6395034873e-05 -0.00010556242921 -0.00011400421685 
0.00043434827177 -0.00025473057858 0.0002815793319 -1.8767805389e-05 -0.00028269652876 4.6729381775e-05 -6.6164626419e-05 3.7715061996e-05 -1.9002547318e-06 
-0.00017795057917 -1.5493586268e-05 -0.00011328230923 0.00011556901375 -2.9823150206e-05 -0.00015152013731 -0.0001947437389 1.9223925813e-05 0.00030967322899 
0.00018459064111 -0.00018265836534 9.1994904169e-05 -4.6801410393e-05 -0.00014341679301 6.4262965094e-05 -0.0004176144747 -4.6121860411e-05 0.00018729471956 
-0.0002429600754 5.9699016094e-05 -1.3303361858e-05 -4.8526727696e-05 -5.1663384964e-05 -1.7224811898e-05 4.1463520746e-05 -9.5040598755e-05 -2.6391546105e-05 
6.5964578873e-06 -0.00030985150912 0.00010681015717 -0.00018243880487 -5.7402173119e-05 -8.2434140583e-05 -0.00012531942303 0.00013273730158 3.8354237584e-05 
-9.9058243465e-05 -6.379934691e-05 0.00015986849378 -0.00011810668471 -2.2642119661e-05 -8.0216489977e-05 5.4533371866e-05 -1.6199048482e-05 6.6337940106e-05 
0.00018501691318 6.0770236668e-06 6.9357436156e-05 -0.0001860164417 1.1241688703e-05 5.1648845803e-05 -8.1943915669e-05 -6.6901349795e-05 0.00013718256281 
-0.00014984810342 4.581037423e-06 0.00025537758981 -0.00018980679135 -0.00012232355039 -4.7242031926e-05 -0.0003178130506 -2.1425258962e-05 3.6298910946e-06 
-7.9227359376e-08 -4.7772060297e-05 0.00013895280055 -0.00014360591448 -0.00023821367551 0.00015531277978 -0.00015638262901 -0.00011254878761 2.8501031619e-05 
-0.00026101287295 3.8154695047e-05 4.3836717472e-05 -5.7239970021e-05 3.8525363304e-05 0.00011725167634 -0.00021241212617 6.7564082021e-05 2.573918925e-05 
-0.00011716545143 -1.6331363901e-05 6.0059642472e-05 -0.00019470594914 4.0402452538e-05 0.00017414367648 -0.0001422714223 -3.636844401e-05 -6.688593603e-05 
1.5049685563e-05 -9.5153346383e-05 -5.4180114564e-05 -0.00017884146765 8.0781839937e-05 -1.5593383802e-05 -1.4134156061e-05 -4.7664569581e-05 -9.1943938707e-05 
-9.9682083085e-05 -5.581612973e-06 0.00012006406953 -0.00022348891563 -0.00014250480956 0.0001026219178 3.125311569e-05 -7.1215354964e-05 7.8737258808e-05 
3.7359297284e-05 4.6162952799e-05 0.00020125652276 0.00027889775973 7.7825291101e-05 0.00013405916622 -0.00021091665988 1.4160747687e-05 9.386972397e-05 
-0.00027776679809 -0.00011531453589 -6.567388917e-05 -0.00024780534912 -0.00010829541652 0.00012981796469 8.3019392327e-07 -9.4133584707e-05 5.6360293654e-05 
-6.0480267373e-06 -0.00021577842305 -8.0914818865e-05 -0.00016624244402 -6.8455455963e-05 -0.00012714645517 0.00022992733879 -0.00017125618463 -0.00015763514032 
8.0759761693e-05 -0.00013536044975 4.8145803084e-05 0.00013061214442 -0.00016091292174 0.00013976699655 7.9825860866e-05 -0.00020080222671 -6.9993106598e-05 
-0.00018652637904 5.8242381324e-05 3.3601783594e-06 -8.4342594834e-05 -1.0341804565e-05 -1.4820556041e-05 -0.00011218749787 -1.6014112983e-05 -1.7868338118e-05 
2.4675082243e-06 -0.00031648925826 -0.00019509440564 -5.7349176688e-05 4.3127150281e-05 0.00018829481019 -5.5072898928e-05 -0.00033642995763 -0.00027881443699 
-9.8736629846e-06 3.3356333311e-05 -3.6305467153e-05 0.00020299346826 -7.2117001992e-05 0.00014534600097 2.7094440241e-05 -1.5342321198e-05 -0.00013593234028 
-7.817598264e-05 1.1828305509e-05 -1.0793614268e-05 -0.0002778934682 4.3443455888e-05 4.949352877e-05 6.9547723627e-06 -5.268999467e-05 -0.00015749799747 
-0.00023475652906 0.00011694092436 4.9886959572e-05 -4.2144212952e-05 -0.00030451426234 -0.00017016680974 -2.5805919798e-05 -0.00012007798071 -0.00023837030552 
-5.1435578483e-05 -0.0003129703574 -0.00015521481244 -6.6517738151e-05 5.6500741107e-06 -0.00024120710942 -9.7572712177e-06 -7.785006475e-06 -0.00016211812163 
-2.625208939e-05 -0.0002362429341 0.00010375610738 -3.8050811769e-05 3.0188310479e-06 -0.00020398216539 -0.00010496179214 -5.0639351269e-06 6.9377788891e-06 
1.4096517982e-05 -0.00012634178633 0.0001601471034 -0.00010841513901 -0.00032953828313 4.0396174998e-05 -0.00015799928591 -8.8967401087e-05 -4.0602765984e-05 
2.0970304185e-05 -1.1263213655e-05 1.1051671179e-06 4.4103883584e-05 -0.00014497118284 -0.00018458794019 -7.6746365601e-05 -0.00011187491151 -3.7843994007e-05 
-5.5947787188e-06 1.9743057404e-05 -1.9196164402e-05 -2.9468156367e-05 0.00013020904535 2.0043094359e-05 -1.9277664901e-05 -0.00027709278861 -0.00018228377955 
8.8668754755e-05 -0.00038808090081 -0.00022455728383 8.6333576402e-05 8.4214720243e-05 -0.00016158424678 -0.0001773951749 -2.9701354511e-05 -4.0696296853e-05 
-0.00012528394123 -6.9991890129e-05 0.00012790548347 -0.00010479191138 1.2555815177e-05 6.3175642177e-05 -0.00017149022568 -1.9234351129e-05 -0.00011702211019 
-1.4341456436e-05 -3.9869809679e-05 -7.3370675367e-05 -1.8136608278e-06 -3.343725873e-05 -8.254204294e-05 -0.00031826592144 -0.00022550269057 0.00035536138198 
-0.00044396119951 -0.00019024433458 5.1420354431e-05 0.00011565673902 -0.0001997268486 -0.0002108396135 -0.00010172787907 7.3435576832e-05 -8.7101337083e-05 
-0.00013918423256 -0.00012977571779 -8.7227994521e-05 3.1908079007e-05 -6.3684400123e-05 -5.1561298427e-06 -0.00030253160816 -0.00015465912281 -0.00028965130262 
-8.1397575043e-05 -0.0002425539543 1.7333786465e-05 -2.9304686419e-05 3.8422066753e-06 -4.0484966748e-05 -6.8860582866e-07 6.1591427638e-05 -0.00013980637982 
-4.272106584e-05 -1.8964323058e-07 -8.7793648356e-06 -1.7673474978e-05 1.2552198436e-05 0.00016083899606 -3.9884596421e-05 -5.9297058266e-05 -3.7049976329e-05 
-8.9812621465e-05 1.2439579573e-05 -0.00013019552091 -2.8349015774e-06 4.0398932108e-05 -2.8475955752e-06 -0.00015669584995 5.4609808419e-06 -5.2858439549e-06 
-1.9573358107e-05 1.2238786381e-06 -2.2044826692e-05 3.6713086958e-06 1.3163499623e-05 -4.846190129e-05 -5.6606092805e-05 -4.4061127169e-05 -7.3287741178e-06 
9.5904852478e-05 1.3314033637e-06 4.7183196323e-05 -2.80376137e-05 6.1234296144e-06 3.8184982829e-05 -7.0177583068e-05 -5.5657948224e-07 -0.00011280905195 
-3.7907562644e-05 -0.00019823018289 0.00014397838826 -2.753019705e-05 2.3614171468e-05 -4.2677047285e-05 -0.00021554389219 -7.8912768763e-06 -5.4553171288e-05 
-0.0001063881772 0.00019426092225 0.0001682696068 -9.0192620569e-05 6.230129031e-05 -5.3545873775e-05 -0.00010507308763 -6.2954558252e-05 -5.7783089499e-05 
-0.00012979585599 1.8066269992e-05 4.1427472181e-05 -0.00025011827661 -2.5966608329e-05 4.2853970484e-05 3.6106680847e-05 -3.4553211463e-05 1.9608298632e-05 
-9.9913927732e-05 3.9282825738e-05 -6.2894778767e-05 -0.000169280564 -2.3006367051e-05 -1.0598655152e-05 9.4437144893e-05 -0.00026715435299 -0.00033965429499 
-0.00011323015 3.5755744242e-06 0.0001453251096 0.00017919174246 -0.00012665778429 -3.5688082865e-05 -0.00012820448643 -2.1416847333e-05 3.9349916751e-05 
-8.6617386478e-05 4.2084136161e-05 2.1885397934e-05 -0.00013007140487 2.6891461061e-05 0.00014058422004 -0.00022490541453 -8.6767134117e-05 5.2249977234e-05 
0.00012822506811 -0.00030217100113 0.00014189218852 -0.00010723850055 7.2582849769e-06 5.9851030903e-05 3.09025972e-06 -5.9039396175e-05 -1.3066201809e-05 
-8.1776107619e-05 4.9632882312e-05 -2.9781589801e-05 -0.00015411053658 6.2158941208e-05 0.00022807539247 -0.00027874790008 6.9964235626e-05 -7.4330233055e-05 
-0.00013271175289 4.9960627857e-06 4.7020416207e-05 0.0021632517967 -0.0021405304597 -0.012366495621 -0.0001354900479 3.9393023476e-05 2.1999676955e-05 
2.0459843508e-06 -0.00020308211103 0.00023393516143 -0.00027737215741 8.1679975694e-06 4.3374488854e-05 -7.9315853387e-05 -8.6106428082e-05 5.1122405277e-05 
-9.9736159878e-05 4.5797519572e-05 -0.0001045880314 -0.00018688154817 -9.9807638809e-06 7.4881814904e-05 -0.00012179620924 -4.8516074342e-05 -7.0910941684e-05 
-5.5431611923e-05 -0.00034175482491 -4.060947887e-05 -2.196093082e-05 -6.9799258072e-05 4.4114449363e-05 4.7276563609e-05 4.4811899879e-05 6.1970687451e-05 
-5.4030927349e-05 0.0001892252071 5.0044140865e-05 -2.0410397691e-05 -5.04655534e-05 3.2737057402e-05 0.00032368005858 -0.00029991807951 -0.00015131954892 
1.3273756515e-05 5.0301375395e-06 2.9132652733e-05 4.4997387531e-05 -3.3243984221e-05 0.00015209805083 -0.0023570804542 0.00056436813131 0.00069919917846 
-0.00010637055642 -0.00017066404547 -0.00025819584318 -5.6002280939e-05 -5.4016908125e-05 -3.2469168759e-05 0.00013348233104 -4.9742556537e-05 -0.00021256859727 
-7.0176892032e-05 -7.4061031543e-05 -0.0001910459649 -0.00024262997378 -0.00015927196828 2.2226532265e-05 -2.8802659243e-05 -2.9214832025e-05 0.00011005799279 
0.00010936614022 2.0943346805e-05 -0.0002286284211 6.7880125431e-05 -0.00011009172902 -8.8144234607e-05 1.3708673895e-05 -4.3223586206e-05 0.00021574779036 
-7.8768767669e-05 -0.0001231418652 -0.00017573851326 -0.00027535768886 -0.00067435406359 -0.00060382151471 -6.933112389e-05 -3.1078564593e-05 0.0001161447244 
5.3095803703e-05 -0.00011479156017 -5.6633182805e-06 -0.00017147102889 4.7921729144e-06 7.2250404199e-06 -0.00028621380242 -0.00026413017058 -0.00039440354025 
-1.4941377479e-05 9.3054741886e-05 -0.00019882141041 -6.0754587803e-05 -6.9914319049e-05 2.5823990022e-05 0.00018790129748 0.00010249315261 0.0001451425102 
3.4163178629e-05 -0.00012894007719 -0.00018971611958 -5.3719131484e-05 -0.00019560837637 5.822889824e-05 -0.00011139051002 -0.00015902423343 -0.00017046347581 
-0.00019523802739 -0.00069057832952 -0.00029181584908 0.00015494079325 0.00012481484849 -0.00022899161296 4.9444338154e-06 6.5275491193e-05 2.0899014211e-06 
1.4938856558e-05 -1.2322662447e-05 -6.3515190638e-05 -7.9391764341e-05 -6.9879922926e-06 -1.8896306667e-05 1.2186879015e-05 -0.00026016417612 0.00017412843678 
3.9598616192e-05 -0.00021019852639 -5.7339012195e-05 3.6060518539e-05 -4.6885104078e-05 4.5752137775e-06 2.2430697381e-05 1.1589712826e-05 6.3237174102e-05 
-4.5882516391e-06 5.8167945262e-05 -0.00017978920667 -8.6671005214e-05 -2.4290701458e-05 3.1513526959e-06 -0.00028707932556 0.00019065289069 -0.00020315036235 
-9.0629639176e-05 -1.759479801e-05 3.2574758201e-05 -3.2844685656e-05 6.1606738126e-05 4.6014228757e-05 -2.6682324554e-05 -2.0347660017e-05 -3.9736781358e-05 
-5.7333399282e-05 -0.00012411632754 0.00024717836765 -0.00061799765895 7.397539209e-12 0.00080473983805 -0.00016910231417 5.6954219858e-05 5.3462176935e-05 
-7.4575048662e-05 -4.5334712496e-05 -5.1695256693e-05 -6.7946530675e-05 0.00016359830117 -7.4703965118e-05 -0.00011912806023 -4.3783485343e-06 6.0097532517e-08 
-0.00013438021077 1.4726210108e-05 -8.0072012539e-05 0.0001458778668 -0.00018400341699 0.00015724054018 3.3193924149e-05 2.9775028151e-05 3.9199370445e-05 
-6.1627520968e-05 -7.5475140165e-05 -1.681834107e-06 -2.0032139173e-05 2.2111962659e-05 0.00015993243324 -0.00012682230615 3.1385705398e-05 2.9112254828e-05 
-0.00027451079241 -2.5408680197e-05 4.8895636985e-05 -0.00013072506914 -4.3879586536e-05 2.8060578556e-05 -0.00019082482439 1.476553622e-05 -2.2687413287e-05 
-9.677220737e-05 -3.9012569561e-05 4.4601506439e-05 9.6019010726e-05 8.1267938448e-07 -0.0001712669488 6.0899272694e-06 -0.0001567709032 1.580006449e-05 
7.5878561219e-05 -8.5398423243e-05 -5.0210879057e-05 -3.9026666381e-06 3.3373898694e-05 7.1364151256e-05 -0.00010606865772 -3.1894503556e-06 -3.5591601998e-06 
6.0600640499e-06 -5.8421910393e-05 -1.7367666987e-06 -0.00019615477503 -6.6797284743e-05 -5.3263887352e-05 -0.00014567532173 -7.2676705701e-05 6.4536420983e-05 
-0.00010752823075 -4.0381827075e-05 4.9495103157e-05 -0.00020905795897 1.5610586531e-05 9.5465389189e-05 0.00017908558038 -0.00025166680952 -0.00010287076211 
-6.6448139792e-05 -1.3075826487e-05 8.8968243764e-06 -5.766492058e-05 0.00015386455516 -0.00028685566479 -0.00016989848685 -6.2135852762e-06 -2.2956246872e-05 
-1.4370431219e-05 1.6765947427e-05 4.5298403916e-06 -0.00010383286429 1.0411781862e-05 6.4184345166e-05 -0.00012168502732 -0.0001245002291 7.9710271914e-05 
0.00013161963741 -7.5815545673e-05 -1.3014792004e-05 0.00012784876368 -0.00028770639756 -0.00016651358184 -1.2049297337e-05 -3.5004510104e-05 1.2667943488e-05 
-0.00017860312463 -4.2736355906e-06 2.4393280517e-05 -5.2004947685e-05 -5.6386824378e-05 8.8557214655e-06 -2.4935427905e-05 -2.1930109914e-06 6.2460298059e-05 
-7.8285105616e-05 -8.6590362193e-05 -0.00015069876502 -4.4352572297e-05 -8.9555688298e-05 0.00015559688128 -0.000206372688 -5.3684092887e-05 4.2011973306e-05 
-0.00014007133172 -0.00023972144051 1.2857102195e-05 8.2221460459e-05 5.4551929119e-06 6.3911643589e-05 4.3430556551e-05 -0.00018470795982 -0.000196365555 
0.00011021607315 -0.0001061741918 -0.00017370754888 2.8633113241e-05 -0.00022944390164 -0.00040278368606 -0.00014376313453 -5.0139166614e-05 0.00014765327055 
7.8699191823e-05 1.8175440768e-05 1.9475419785e-05 -0.00019736472267 -0.00011043324156 -1.7740606868e-05 1.3103354621e-05 6.9335803654e-06 3.2526456374e-05 
0.00012741663738 -2.6248663416e-05 3.4269666005e-05 0.00013574560449 -1.8951442179e-05 -1.1860645574e-05 -0.00033290281043 1.3059239906e-05 -9.0825946319e-05 
-3.5033414951e-05 -0.00031469897305 -0.00019666799779 -0.00010653677686 3.2358255617e-06 2.4482941054e-05 -5.3794819088e-05 -0.00024587417395 -0.00023735698309 
5.0146189052e-05 -0.00010638298181 -3.7975568607e-05 0.00019297392197 -0.00014661105578 4.4274566756e-05 -0.00014414091532 -5.3651548094e-05 0.00022640875473 
-0.00020391991653 -0.00014337601536 -0.00022757725254 4.8630980585e-05 9.701160134e-05 -0.00014788763664 -2.4900030617e-05 -1.0960466694e-06 0.00017074610029 
0.00016821392208 -0.00023091346984 -1.306163283e-05 0.00014179314883 1.0748838371e-05 0.00015978055432 -0.00031609494689 -4.172994526e-05 -0.00028824261484 
-0.00012410175229 -5.4897846317e-05 0.00011446875388 -7.7478193738e-05 0.00014093119513 3.409052227e-05 -0.00024888992766 -0.0001865126158 -0.00039071384093 
1.4670151107e-05 -4.1571690526e-05 -0.00021338628458 -0.00014116090612 0.00018157570822 -7.8893737418e-05 -1.5041139741e-05 -1.2128532169e-05 -4.1976171545e-06 
-5.3744686453e-05 3.5150294323e-12 0.00021754223253 -0.00019200632767 8.4081549891e-05 -3.542074109e-05 0.00011129472919 3.2143131436e-05 0.00040047516023 
0.0001234089957 -9.8228980845e-06 -9.6548745092e-05 -1.8683316545e-06 5.6408257854e-05 -8.2519535771e-06 4.1565950952e-05 2.1375100253e-05 -1.1468458266e-06 
-2.4111896152e-05 3.7910679286e-05 -9.889887967e-05 -3.9168459867e-05 -1.4998660592e-05 -5.8242426416e-06 -0.00020811182583 -1.305194511e-05 -6.1261074356e-05 
2.8566694013e-05 2.2125626488e-06 0.00013650574552 0.00013683756673 -2.2948831343e-06 8.1379269354e-05 -0.00019140356059 -5.5188783121e-06 0.00026678211171 
-7.3198875069e-05 -8.9044089327e-05 4.8638478404e-05 2.8264824645e-05 -4.0354911838e-05 -7.6690042711e-07 1.2357944476e-06 9.6198513057e-05 7.261376533e-05 
4.0832721054e-05 5.4615078215e-06 0.00017096578133 1.0962653691e-07 2.5169503926e-06 5.4269776503e-05 -4.9838651077e-05 2.4014468829e-12 -0.00010956749742 
9.5664169736e-06 3.615682081e-05 -3.3962138731e-05 -7.4477382081e-05 -7.7396191337e-06 -1.2921826287e-05 -1.1797071278e-05 1.4741676231e-05 0.00010537752401 
4.9239454249e-05 -3.5561224039e-07 -0.00024010399299 -7.5556329429e-05 -4.83603637e-05 -0.00012211027557 1.2286789553e-05 3.2010591328e-05 -3.2238799778e-05 
4.1324165372e-05 -2.5629448528e-05 -2.4199595061e-05 -8.3294381278e-05 -0.00019415965449 5.2445601691e-06 -0.00014949932467 -3.6925909668e-05 9.1421977774e-05 
-5.6209525858e-05 2.1917123851e-05 2.6150796784e-05 -5.4177474531e-05 -1.3548805376e-05 3.2742829439e-05 6.243330513e-05 5.2381293138e-05 0.00010751483012 
-8.6508584657e-05 1.7724505249e-05 8.0919864822e-05 -0.00030532277904 -3.9465465055e-05 6.9239329121e-06 3.3227521538e-05 -2.3757255588e-05 6.8883147051e-05 
3.376219636e-05 -4.2019484632e-05 3.5046505759e-05 -8.6661205633e-05 3.6739467781e-05 -5.367190773e-05 -3.7267557104e-05 9.0145929998e-06 7.5007062137e-05 
-0.00019678928027 2.0277805254e-06 -1.7229072231e-05 -6.8803115153e-05 7.6097967277e-06 2.0350721331e-05 -0.00018183646375 -7.770063651e-05 9.7527252358e-05 
0.00010464108127 -6.4709889124e-05 2.1409955982e-06 -0.00015330343185 -0.00014835875206 0.00017893403708 -4.2608588509e-05 -0.00035988531794 -0.00013061202408 
-0.00021764969996 -4.0092398947e-05 -1.587084278e-05 9.573337591e-05 -3.4691230153e-05 -5.8122927457e-05 -0.00036717523511 -3.6964335424e-06 0.00016878436067 
-0.00029527177893 6.1979550627e-05 0.00010563705985 1.9366978155e-06 5.4846470995e-06 -9.0644757743e-06 5.1420122755e-06 -0.00011731182357 -0.00015954312615 
-0.00011906173533 5.6985946637e-05 9.2248258101e-05 -0.00010415995124 -0.00015316616319 5.4086908184e-05 -0.0002266477079 0.00013960462359 3.9857725569e-05 
-0.00025546394266 5.7743091948e-05 0.00018699422889 -4.8326963611e-05 5.2965254593e-07 -7.7648026672e-07 -6.0959690362e-05 2.9037758065e-05 2.369768479e-05 
-0.00019804518946 -0.00025371632655 1.7344970024e-05 -0.00012384748757 -6.6187918266e-05 4.1902800849e-05 -3.9704504848e-06 -0.00017347013443 -1.0522390241e-05 
-8.4600447464e-05 5.2130935098e-06 3.3384492254e-05 -0.00016873228257 -0.00010299766045 3.4248442063e-05 0.00012759188789 -4.6090838112e-05 -3.5878915989e-05 
7.5903690682e-05 -0.00023340906832 -0.00031482101063 -0.00021669197732 -0.00031212168902 -0.00030441850182 -0.00012826584335 -8.5641025069e-05 4.4769824708e-05 
5.4760289686e-05 -2.8552550848e-05 -0.00026092876788 -0.00011126941305 1.8831007852e-12 4.9845776732e-05 1.1537005842e-05 -6.9884433541e-05 -0.00020504378421 
-2.9187945622e-05 0.00019302668418 -2.0098537636e-05 -0.00035898149931 -0.00012448124954 9.4339735862e-05 4.0184032287e-05 3.8880264441e-06 -0.00010378857983 
-0.0066089992197 -0.0078930138884 0.020706963828 -0.00021010993304 -0.00015475289304 3.3046632266e-07 -8.1177014186e-05 -4.2696329255e-05 -1.5077669689e-05 
0.00018937303617 3.8930242035e-05 -8.2701624981e-05 2.3803501636e-05 0.00011867065535 -8.0063072715e-05 -9.9190895622e-05 9.920116581e-06 -1.3503580208e-05 