# vtk DataFile Version 4.1
vtk output
ASCII
DATASET UNSTRUCTURED_GRID
POINTS 1274 float
0.274404 -1.29398 -0.0534093 0.274069 -1.30222 0.0958238 0.293593 -1.29549 0.308995 
0.157851 -1.31628 -0.210624 0.298364 -1.29061 0.177636 0.412647 -1.23505 -0.0673316 
0.382074 -1.29112 0.321889 0.471719 -1.23557 0.493736 0.512068 -1.24399 -0.00723799 
0.636698 -1.25294 -0.00503487 0.539419 -1.34687 0.187987 0.642139 -1.22214 0.432933 
0.852503 -1.27186 -0.151449 0.843496 -1.25419 -0.0824597 0.65728 -1.29496 0.158452 
0.755541 -1.27578 0.265865 0.695944 -1.2694 0.219226 0.795187 -1.207 -0.043325 
0.637951 -1.20469 -0.055883 0.672328 -1.34644 0.00776646 0.710665 -1.18999 -0.0835968 
0.690791 -1.30803 0.278264 0.463057 -1.22409 0.309366 0.615528 -1.27178 0.224245 
0.913286 -1.2367 -0.0778806 0.348645 -1.23225 0.155335 0.661225 -1.20617 0.363298 
0.813475 -1.19449 -0.112235 0.922054 -1.3135 -0.000865466 0.824099 -1.22872 0.0381787 
0.969703 -1.2019 -0.00759793 0.655856 -1.22888 0.0480916 0.561532 -1.21666 0.380521 
1.08066 -1.2204 -0.279501 1.03417 -1.24133 -0.142911 0.537164 -1.20769 0.285123 
0.790566 -1.27831 -0.0120507 0.634838 -1.27389 0.285485 0.403145 -1.24047 0.11789 
0.917402 -1.1938 0.0442419 0.853012 -1.22361 -0.20667 0.798045 -1.2326 0.160483 
0.838391 -1.21166 0.1092 0.747706 -1.21963 0.217604 0.904253 -1.24314 -0.00697771 
0.959214 -1.23113 -0.245141 0.891723 -1.25187 0.291551 0.887932 -1.21791 0.229844 
0.453273 -1.29871 -0.30594 0.167907 -1.33236 0.280788 0.144818 -1.35855 -0.0656827 
0.0370372 -1.33394 0.173397 0.286836 -1.34243 0.471847 0.255979 -1.33823 0.384886 
0.239827 -1.31296 0.164704 0.379934 -1.35334 0.285291 0.151033 -1.34827 -0.274917 
0.359398 -1.41001 0.0556156 0.611877 -1.28902 -0.213605 0.217801 -1.3534 -0.222454 
0.399469 -1.34723 -0.151302 0.371804 -1.3547 0.404257 0.400371 -1.29289 0.394636 
0.27826 -1.34825 0.208857 0.213906 -1.33773 0.00492204 0.484108 -1.2625 -0.18701 
0.413839 -1.36087 -0.0238222 0.583703 -1.34508 0.300019 0.432937 -1.28244 -0.142917 
0.304417 -1.28419 0.242666 0.552607 -1.36043 -0.0201122 0.37772 -1.27363 0.195541 
0.331179 -1.29825 0.061891 0.33103 -1.26202 0.44565 0.509576 -1.22789 -0.0825925 
0.62381 -1.4128 0.0999932 0.53059 -1.24709 -0.240802 0.222619 -1.27713 -0.210764 
0.56891 -1.35627 0.0407301 0.540784 -1.30148 -0.0342415 0.342696 -1.24205 0.270957 
0.45222 -1.288 0.450603 0.57999 -1.33497 0.469886 0.447079 -1.28005 0.262893 
0.51068 -1.29834 0.292072 0.452207 -1.36107 0.112226 0.614322 -1.30307 -0.0468481 
0.641951 -1.226 -0.214097 0.973017 -1.28489 -0.284923 0.569527 -1.28587 0.172691 
0.475251 -1.28591 -0.249416 0.764714 -1.28921 0.343647 0.646002 -1.32693 0.220652 
0.578393 -1.23661 -0.0529614 0.993594 -1.26122 -0.0382281 0.74167 -1.25245 -0.0587914 
0.684798 -1.29078 0.0498281 0.875697 -1.34912 0.161341 0.602568 -1.25506 0.0822954 
0.780087 -1.23195 0.387585 0.79125 -1.24189 0.464541 0.54525 -1.26307 0.233658 
0.825772 -1.3592 0.207705 0.621356 -1.22404 -0.142571 0.687457 -1.23147 -0.0321146 
0.551892 -1.23954 0.125041 0.732466 -1.23707 0.0217258 0.807969 -1.29996 0.178501 
0.82905 -1.24984 0.340546 0.681071 -1.267 0.329827 0.80885 -1.22684 0.532537 
0.914674 -1.23072 -0.348571 0.769713 -1.30927 0.0489866 0.438456 -1.25553 0.191071 
0.734875 -1.20167 0.468538 1.16646 -1.22109 0.0138337 0.629498 -1.26544 0.531963 
0.734114 -1.22569 0.317586 0.70573 -1.24391 0.413288 0.578818 -1.24214 0.016194 
0.957097 -1.29123 0.219928 1.10957 -1.23879 -0.177462 0.839097 -1.30491 0.0442635 
0.978051 -1.22491 -0.0920812 0.908645 -1.28986 0.0613079 0.61534 -1.23549 0.149591 
1.27317 -1.19123 0.494993 0.73828 -1.25483 0.162428 0.940446 -1.22443 0.19192 
0.953244 -1.20825 0.422815 1.21303 -1.26215 -0.184162 0.905003 -1.23245 0.0977806 
1.04342 -1.2243 -0.00563821 0.863659 -1.23305 0.17207 1.1139 -1.25818 -0.0277333 
0.96349 -1.2624 0.0314763 0.0867427 -1.41341 -0.246522 0.285847 -1.36074 -0.213043 
0.429944 -1.40919 -0.397639 0.0351688 -1.35965 0.315029 0.213279 -1.32108 0.482505 
0.0967699 -1.40799 0.156826 0.215022 -1.34266 -0.402017 0.500759 -1.31863 -0.348161 
0.0871178 -1.35984 -0.381447 0.493918 -1.34763 0.460001 0.251039 -1.27892 0.529061 
0.146954 -1.35438 0.379284 0.241203 -1.41179 0.297684 0.0968428 -1.35809 -0.0122274 
0.276994 -1.31941 -0.156897 0.0801261 -1.35884 -0.288908 0.472963 -1.35386 0.309857 
0.348743 -1.40768 -0.0293402 0.129658 -1.34354 0.230639 0.213401 -1.33453 0.0982796 
0.219801 -1.29555 0.291264 0.32163 -1.29149 -0.295094 0.271021 -1.34802 0.0403887 
0.422837 -1.31859 0.166488 0.0831537 -1.29165 0.217477 0.515579 -1.2998 0.419511 
0.893684 -1.2999 0.533049 0.54646 -1.35513 0.420618 0.240984 -1.29473 0.228459 
0.318326 -1.35519 0.156956 0.31891 -1.3543 0.0925939 0.368534 -1.28811 -0.232769 
0.519344 -1.33059 -0.241951 0.492884 -1.29266 0.203786 0.546877 -1.22493 0.527674 
0.644926 -1.28754 0.40847 0.777379 -1.34109 0.461395 0.424442 -1.34437 0.229371 
0.677093 -1.41468 0.136489 0.59575 -1.22174 -0.399396 0.60173 -1.35849 0.188767 
0.840621 -1.22213 -0.324784 0.392012 -1.29518 -0.298951 0.828584 -1.29945 0.283861 
0.758979 -1.2893 0.419415 0.326842 -1.27823 -0.178015 0.571297 -1.27619 0.289449 
0.669317 -1.27063 -0.166525 0.488659 -1.24855 0.145929 0.877947 -1.29191 0.213673 
0.97076 -1.38768 0.088349 0.535858 -1.28035 0.056439 0.994648 -1.25491 0.444078 
0.64882 -1.33025 0.340952 0.942045 -1.2961 -0.0640208 0.679789 -1.20653 -0.264915 
0.726098 -1.22849 -0.145378 0.791319 -1.30404 -0.080191 0.819842 -1.34956 -0.04389 
0.739139 -1.31659 0.179898 0.703692 -1.35412 0.139541 0.860139 -1.29913 -0.0261599 
1.00864 -1.24918 0.0867387 1.06328 -1.27381 0.0393059 0.91276 -1.25064 -0.141666 
0.786233 -1.28846 0.115504 1.10811 -1.28295 0.396937 1.00398 -1.24679 0.189125 
0.81788 -1.24276 0.229523 0.699741 -1.2589 0.111238 0.932226 -1.36078 0.217448 
0.8566 -1.28486 0.119241 1.19602 -1.36018 0.116589 0.947246 -1.35423 0.143281 
1.12388 -1.25848 -0.0971809 1.02677 -1.26066 0.275127 0.763655 -1.22377 0.095274 
0.993477 -1.35229 0.197106 0.297615 -1.4153 -0.358777 0.199526 -1.37219 -0.327206 
0.0322031 -1.4135 -0.0344495 0.441397 -1.28062 0.530989 0.0339858 -1.41171 0.191239 
0.0879382 -1.32365 -0.107494 0.342948 -1.30463 -0.394473 0.0369051 -1.36224 0.0211574 
0.0400763 -1.34266 0.475961 0.346687 -1.40639 0.198489 0.152001 -1.41314 0.444412 
0.323996 -1.34684 0.532516 0.0882321 -1.3953 0.227137 0.326796 -1.35875 -0.265157 
0.21836 -1.35045 -0.129589 0.248765 -1.41429 -0.200814 0.125327 -1.33776 0.152537 
0.312048 -1.29135 0.502184 0.0915744 -1.33751 -0.219663 1.00644 -1.41418 0.472724 
0.234356 -1.40735 0.202637 0.219307 -1.34149 -0.0607849 0.403496 -1.35852 -0.282296 
0.151304 -1.32345 -0.00126872 0.582397 -1.41374 0.215095 0.469267 -1.4131 0.144652 
0.453133 -1.28895 0.34078 0.274471 -1.35677 0.32268 0.194771 -1.36252 0.15778 
0.311968 -1.3457 0.270215 0.800452 -1.4127 -0.227635 0.190475 -1.38786 0.26468 
0.356298 -1.34225 -0.0620577 0.16178 -1.30561 -0.121071 0.394458 -1.41526 -0.141701 
0.293078 -1.35414 -0.0873585 0.466025 -1.3396 0.396237 0.479306 -1.25452 0.394764 
0.298066 -1.35986 -0.0221718 0.35911 -1.34951 0.0161378 0.800577 -1.29681 -0.211654 
0.379148 -1.36167 0.155197 0.336159 -1.34527 -0.179487 0.353787 -1.30002 0.13311 
0.378248 -1.29372 0.255951 0.347851 -1.33266 0.211458 0.526507 -1.23526 0.43609 
0.4478 -1.29508 0.109195 0.734833 -1.25799 -0.210945 1.05814 -1.36684 -0.148104 
0.310941 -1.30423 0.00380738 0.444522 -1.30499 -0.0196699 0.83406 -1.41477 -0.138318 
0.613347 -1.36206 -0.0111107 0.650195 -1.36305 0.274963 0.503234 -1.34984 0.244861 
0.529246 -1.25977 0.341249 1.14783 -1.36811 0.380409 0.62804 -1.36791 -0.072977 
1.12609 -1.25724 -0.238397 0.725285 -1.29497 -0.113908 0.854804 -1.32392 -0.108 
0.686997 -1.36349 -0.0515206 0.747285 -1.34126 -0.00661509 0.898257 -1.35458 -0.0556272 
1.0493 -1.23496 0.467911 0.636121 -1.3151 0.0929592 0.841239 -1.41501 0.254125 
0.654292 -1.25584 -0.0930608 0.89559 -1.35374 0.0893011 1.09868 -1.31868 -1.92434e-05 
1.01066 -1.31075 0.00817393 0.812814 -1.37004 0.0466051 0.753648 -1.33952 0.101591 
0.696311 -1.297 -0.0333444 1.05082 -1.34998 0.155323 0.854801 -1.41217 0.0902494 
1.15992 -1.22829 0.399634 0.994251 -1.28886 -0.107519 1.09808 -1.40835 0.173477 
0.963748 -1.37544 -0.0369128 0.971682 -1.31642 0.0849727 0.885575 -1.20215 0.469482 
0.0341697 -1.37751 -0.227449 0.031495 -1.41421 -0.173057 0.0354904 -1.41018 0.467956 
0.0725719 -1.41424 0.307312 0.0841272 -1.37169 0.528368 0.0999392 -1.41553 0.479325 
0.0769033 -1.41064 -0.339093 0.166931 -1.39488 -0.394951 0.384356 -1.36049 -0.403686 
0.0336249 -1.41208 -0.285771 0.0516173 -1.41294 0.0666082 0.265142 -1.4091 0.471004 
0.0355701 -1.41055 0.363533 0.240002 -1.4087 0.370261 0.14311 -1.41182 0.529845 
0.302041 -1.35416 -0.332226 0.14284 -1.41429 -0.331478 0.145826 -1.41471 -0.269147 
0.640511 -1.41014 -0.320422 0.424346 -1.41293 -0.2371 0.116138 -1.41367 0.0607957 
0.0974555 -1.344 0.422147 0.392144 -1.33177 0.529312 0.10964 -1.35194 0.315253 
0.501081 -1.4062 0.400931 0.175115 -1.37133 0.0537253 0.31017 -1.40789 -0.16834 
0.292574 -1.41419 0.0897126 0.209931 -1.40898 -0.0931211 0.355721 -1.34871 0.469266 
0.316764 -1.32222 0.415556 0.29172 -1.40986 0.249625 0.713946 -1.35027 0.518498 
0.207676 -1.35191 0.33159 0.411804 -1.34996 0.349621 0.453422 -1.34846 -0.224173 
0.383322 -1.35573 -0.219018 0.0656383 -1.35879 0.109175 0.455445 -1.40706 -0.173092 
0.243569 -1.35265 0.267339 0.263911 -1.35818 0.128513 0.42108 -1.3536 0.450355 
0.336539 -1.32075 -0.122255 0.457504 -1.41043 0.0497085 0.630645 -1.27895 -0.369907 
0.525146 -1.29203 -0.291006 0.569886 -1.41475 0.0648387 0.520474 -1.2859 0.488621 
0.648241 -1.41098 0.225276 0.550748 -1.35218 -0.295359 0.45669 -1.41397 0.209234 
0.68079 -1.36127 0.394696 1.07341 -1.29084 -0.270073 0.464095 -1.2845 -0.0796451 
0.428225 -1.34145 -0.0861542 0.501986 -1.32656 0.0152261 0.43829 -1.34185 0.0379281 
0.529759 -1.33041 0.355629 0.572361 -1.28992 0.535691 0.942912 -1.25407 0.531368 
[...]
POINT_DATA 1274
FIELD FieldData 10
VELOCITY 3 1274 double
-0.0022672527639 -0.00052823995978 0.00087790959929 0.00057861597811 -4.6516320918e-05 0.00034661796414 -0.21512642955 -0.13611464079 0.075175198512 
0.00011935360252 7.035081875e-05 4.204582289e-05 0.010449243622 -0.050293684361 0.02017083644 -3.5919477301e-06 0.00090332403776 0.0011875940265 
-0.0001498037858 0.0011874863192 0.0020485644816 -0.015355482165 -0.012277151786 0.041916739931 -0.0012470726204 0.0018141533039 -0.0059975014593 
0.0023988292443 -5.3265234343e-05 -0.0017851379333 -0.00054044245412 -0.0040118081108 -0.002168780144 0.010688382436 -0.0041868709493 0.018549493736 
0.005586769902 0.0009103561404 0.0020474790795 0.016386625765 0.00079109022096 -0.0026116388349 -0.0011278382999 -0.0011602400502 -0.0025511844868 
0.0024745047603 -0.002733508285 -0.0049573855267 0.0019194991526 -0.001886444453 -0.0041174044092 0.0041622165147 -0.00030715155619 0.0065995285404 
-0.024445668829 -0.024444020188 0.023322900215 0.00028571973426 0.00017854919222 0.00026745652 0.038349822408 -0.0078427204969 0.0068630669029 
0.002492005323 -0.0013662872227 -0.0037384574544 -0.074131308744 0.013348359592 0.011420944084 0.00054497130842 -0.0005940936539 -0.0012163054562 
-0.021654512368 0.0026042731441 0.015299542336 -0.27693974416 -0.064834087616 0.12836626389 -0.035427929274 -0.017726110061 0.0028092598009 
-0.065713618193 0.014981584653 -0.0092586684729 -0.0041184301496 -0.0054304432949 0.0019754359796 -0.0093979841537 -0.0043271621975 0.0067657073747 
0.0039176243331 -0.029999754157 -0.044936202132 0.0060937453065 0.0059298328542 -0.0057264970435 -0.042200374667 -0.019249260032 -0.029272359221 
-0.0088514126807 -0.0013459173588 0.0022800193797 -0.023000385373 -0.009373180632 0.029732115698 -0.09358708955 -0.057285727507 -0.095451160908 
-0.0030930676816 -0.0026424335053 0.00047510846387 0.0064995610125 0.0032078073073 -0.00012560906814 -0.17675919424 -0.26965577285 0.30211559466 
-0.019331141463 0.010508226469 0.0024782128257 -0.0077888646174 -0.027629635236 -0.030807966924 0.0033509813918 -0.0024193104063 -0.0024327923784 
0.0022943265233 -0.0024830776722 -0.0086788964916 0.0022749059681 -0.0013861129776 -0.0033433088121 -0.0089799096948 -0.0057170169109 0.015813457429 
0.05405549972 -0.032291927178 0.052021772875 0.0047815100424 -0.0040446311641 -0.0024346288283 -0.0020386967106 0.00062472327183 0.00061072610221 
-0.00016992406701 -3.14091641e-05 -0.00092526403374 -2.6034984732e-05 -5.9637019239e-05 0.00047932998997 0.0028365932755 -0.0020239162662 0.002817353978 
2.4980946427e-06 -0.001303396518 0.00056974793871 -0.00085433541332 0.00037213215303 -0.00026108878957 -8.0519509916e-05 0.0002835849134 0.00048619216789 
-0.0049443302552 0.0044491249381 -0.004776838987 -0.00053966586469 8.6223783986e-05 -0.00044570333618 0.00016983568285 -2.2106170053e-05 -5.7828338157e-05 
-0.0009161229635 3.6796858635e-05 -2.8473657511e-05 0.001049365095 -0.0004321017105 0.0023209440855 0.00015397997521 -2.6089128501e-05 0.0002965441136 
0.00080115042688 -5.6457305376e-05 -0.000278490792 -0.00020482707817 -0.00077453010762 0.00025530691665 0.0011446636962 -0.0012238207412 0.0017572976753 
-6.0901152525e-05 -2.3812523116e-05 0.00019731204511 -0.00020817612571 -0.00043588129278 0.00091163551532 -0.0015648514493 -0.0054489397792 0.00044171706395 
-0.001514423092 0.00038051528687 -0.0002145080811 -2.2205023575e-05 -0.00021140712915 -0.00039239949702 0.00019228132165 -0.0017707060435 0.0040807427803 
0.0032518351548 0.0068974519037 0.015178006851 0.0014691632461 0.0010315861007 0.00285633489 -0.0031347539068 0.0023087851972 0.0037803125477 
0.00017480199048 0.00027369745624 0.0002145104614 7.6979459266e-05 3.9584796773e-05 -9.2748073654e-05 -0.017726912668 0.01351097768 -0.022926980326 
-0.00036531385662 -0.00011030449441 0.00032258625184 0.0022399895501 -0.0019001904179 0.0010235546514 0.041486390248 -0.015099865872 0.081677935869 
0.0015334711217 0.00067261006627 0.0030007022847 0.0015810376678 0.00034388288489 0.00022194883662 -0.056055793674 -0.085908403369 0.23370503862 
0.00061269048753 0.0015408357042 0.0021931405767 -0.00019108438827 -0.00091888981702 -6.7581114519e-05 -0.0030876594392 -0.0036734371066 0.007697426704 
0.0094380909098 -0.014912353789 -0.024899224728 -0.0010324114695 -0.0001398937745 0.00094699531434 0.0043783212169 -0.0010817754493 -0.0015217505063 
-0.040671974449 0.019612152116 2.3786334732e-05 -0.0038895216575 -0.0044712801535 -0.0056521301048 0.019090855947 -0.02337786718 -0.029272873841 
0.0022757010158 -0.0014894728486 -0.0015435991024 -0.00032172801769 -0.0012588085232 0.004400191126 -0.0036576553326 -0.003034583858 -0.0015955156333 
-0.028692797441 -0.019480702308 -0.0071553110072 0.038503498829 -0.025240078704 -0.040821205413 -0.00098111169917 -0.0060918556705 -0.0036359301292 
-0.0023012558561 0.0022214982698 -0.0010436364184 0.0019763693508 -0.00025505559548 0.00044329409603 0.0042999548155 0.0017385315683 -0.011718479726 
0.0060152557943 -0.0038861647595 0.005685640647 -0.00045012182688 0.0017570201342 0.0018352008214 0.043158401271 -0.0059580978389 -0.023877366022 
0.0023103954852 -0.0011454110969 0.00064249646952 0.0035446170749 -0.0026463869749 -0.0032038548503 0.0017072848314 7.839070045e-05 -0.0031998164467 
0.0088208041574 -0.0020878626024 -0.0047944617776 -0.0011149482532 0.0012347031178 -0.00063595699151 0.0020190975918 -0.0022207634065 -0.001112690403 
0.0025909475185 -0.0032655055891 0.0021493249603 0.0020097968175 -0.0023679705508 -0.002804579689 0.0017711911734 0.0072292664084 1.1759047572e-05 
-0.010405175324 -0.046110695801 -0.080690052185 0.00072121053396 -0.00083859881795 0.0012438235826 0.0011963299359 -0.015375038275 -0.012450486561 
-0.0047843651086 -0.013747476196 0.096800433956 -0.030771943209 0.006296026219 -0.016314632232 -0.019546140462 -0.027474234476 -0.01985527691 
0.0025059969714 -0.0035109875628 -0.0040720408977 0.0069464123821 -0.0008385496836 0.0029164759619 -0.00073636832607 -0.0068147710487 -0.0062588898172 
0.0054388197118 -0.0038580282119 -0.00041470507139 -0.02760159507 0.0020591736054 0.045614174464 0.00069294528037 -0.0026621293834 0.00096758249239 
-0.11388260454 -0.039950717808 -0.0069823590463 -0.00019917462704 0.00037178849662 0.00087656177363 0.00015806419332 -0.0012114521028 -0.01033194834 
0.2377114039 -0.093492486092 0.10286068497 0.0036947389815 -0.0028780574401 -0.0026729672219 0.0017103460291 -0.0016525207648 0.0063756193567 
-0.0026393242288 0.0022447732452 0.000533387093 0.011116233105 -0.01530409274 0.0057005944766 0.0014767961771 0.00086528289107 0.00040466506117 
-0.022518966403 0.0074849172132 0.015531764379 0.0030800185113 0.00051309279934 -0.0016036736507 -0.030287462682 -0.058204492412 -0.15242992728 
-0.00050165223634 -0.00025637814098 -0.00027673501535 -7.2171533843e-05 6.3282593571e-07 -0.00025577635587 0.00032061634959 0.00010027530898 0.00016596976071 
8.8009711894e-06 -5.5087812213e-06 -4.2436975863e-05 -2.1237536481e-05 -0.00017291761601 0.00075149923861 0.00013047341869 -6.6254210851e-05 -0.00032023455984 
-0.00018184708738 -1.8448336052e-05 -0.00015092219215 0.00032502227589 -0.00039869042931 -9.1186817898e-06 0.00049818103472 -0.00052523802671 0.00024929636526 
-0.00014671729679 3.8562563301e-05 -4.5483967091e-06 -0.00049371139755 8.3420245942e-05 -0.0010309571806 -0.00019523659978 2.7087869502e-05 -6.4348344756e-05 
0.00037181140416 0.00018913997497 8.2861071358e-05 -0.00013107610169 0.00012970993222 -0.00020958596902 0.0001194546274 0.00023664730904 0.00047727648606 
-0.00095183079808 -0.0011843748455 -0.0014846513531 -8.5891658456e-05 1.384642461e-05 -8.224627673e-05 -0.00073650895602 0.00013080794909 0.00078016367715 
-0.00022625175668 0.00014226178478 8.9606965166e-05 0.00017242347205 1.4032127169e-05 0.00035050194281 -0.00017918296232 -9.4578973585e-06 7.966348059e-05 
0.00053277397681 -0.00066246856037 0.00012556657943 -0.00013502980915 -0.00010408903818 0.00010829482709 0.00021510407465 1.8984830739e-09 0.00034169305291 
-0.0009124603843 0.00086668958731 -0.0010506721387 -0.0064184036748 -0.016763301631 -0.042358096522 0.0012617181468 -0.0012467303821 0.00019486980571 
-0.0028586117436 -0.0017953906986 0.00022769699092 0.0010430058056 -0.0016123116851 -0.00017500698474 0.0065743070312 -0.0070245689926 0.01084502224 
8.8674275817e-05 -0.00012768915724 0.00030598319928 0.00052479228241 -0.00014765932918 2.7758538889e-05 0.00097501726197 0.00025029716166 -0.00029342602745 
0.0016906015098 -0.0015763584547 0.0015182644068 0.0075991531175 -0.00077591330543 0.0062183136654 0.15650346391 -0.067724874269 -2.0960888544e-05 
-0.0096128087047 -0.0013826645344 -0.012605355499 -0.0011626278299 0.00065761725213 0.0013941894494 -0.0056326734852 0.0015727597229 -0.00055115677002 
-0.00069509009315 -3.8504197005e-05 0.00028666165973 -0.0077324807134 0.0022067087377 -0.00017473311387 -0.0049601443175 -0.0015613551213 -0.0015325563771 
0.022899988395 -0.0046347477754 0.0014007635814 -0.00011184357646 0.00012057934305 -0.00066957929814 0.0017550651795 -0.00031609762115 -0.00026432796889 
0.0042699338325 -0.0037080245924 0.0043116777278 -0.012890274622 0.0077521944919 -0.012225763347 0.0057647877896 -0.0028155834919 -0.016579786161 
0.0030083376971 -0.0053603793316 0.0022767553895 0.011012801839 -0.0078152983069 -0.0003064499192 0.0051912357729 -0.0010152691798 0.00084101547063 
-0.0030078472621 3.2053590613e-05 0.0013415282848 -0.00020638757296 -0.00046040279356 0.00064094310666 0.00049500062365 0.0015008818411 -0.0010681931567 
-0.0004083247756 -0.00012484959221 0.00085254790604 -0.0062862032693 0.0071626828085 0.0042312067403 -0.021198061807 0.0038391062337 0.021126167139 
0.0053983397681 -0.0057871414854 -0.0025769926106 0.0055018783054 -0.0061441940836 -0.0098112793585 0.009576374778 -0.001766841394 -0.0075728957836 
0.0021808464666 -0.0026420309578 -0.0018778566474 -0.0010887831835 -0.00086891299618 -0.00061370015524 -0.0036407486271 -0.0039104730007 -0.00024066781952 
0.0017306051677 -0.0021352023389 -0.00099095898981 -0.012502707108 -0.010717340222 -0.008949159316 0.0036071302502 0.0029072254837 0.015356806967 
0.0030523131929 -0.0004988559319 -0.0010622142105 0.010448488268 -0.010876511244 -0.013348495481 0.0048304215018 -0.0036851070889 -0.00063300659938 
0.0021205539754 -0.0014934019031 -0.0017717326052 0.00056679029677 -0.00029998864241 -0.00042425853104 -0.00028311430307 -0.0018875811234 -0.0014612630018 
0.0030396827555 -0.0011057225008 -2.9142513374e-05 -0.00041715412932 -0.0059981504842 0.0036463505477 -0.0013205051928 0.0015296822917 0.00018246973726 
-0.016532326392 -0.0017608514121 -0.0054723900599 0.0010858006838 -0.00096710871833 0.00023702893082 0.00070580428659 -0.0012029875491 -0.0008978632625 
-8.1155898936e-05 -0.0064824485027 -0.0026343124715 0.00012091366686 -4.0532449641e-05 0.00018259039068 0.00012217277225 -0.00010282624361 -9.3868529239e-06 
2.9681832126e-05 0.00011094506978 -8.0617303372e-05 0.0033980020972 -0.001382751592 0.073059839408 5.2009627071e-06 -0.00011016484583 0.0001970209548 
2.8019485532e-05 -0.0038918630759 0.0051987152636 -0.00048262520502 -0.00017899137923 -2.9432332675e-05 1.5422627833e-05 0.00014468649175 0.00015397378633 
0.09976027319 -0.02138145345 0.0037030177701 -6.9920335236e-05 0.00011335427775 -2.0864403001e-06 -5.8390333624e-05 -7.9188409444e-05 0.00017386865937 
-8.9327485433e-05 6.7544160559e-05 -2.3223114295e-06 3.6096821445e-05 0.00015454947441 0.00011162929727 -0.00024417105669 -0.00013681361532 -0.00018976270992 
-0.00066133902247 -0.00023887102202 0.00078430840081 0.00062248255284 1.4937306619e-12 -0.0040186908736 -0.00094366022666 0.00039135861224 0.0023478862105 
-3.0113678623e-05 6.8359277478e-05 -0.00013409556687 0.00016641156394 -3.4022984994e-05 -0.00016959555973 -0.0035291706424 0.00024950842904 0.0018069858779 
-0.00024156706704 1.0120917676e-05 9.7266376083e-05 -0.002741908568 0.00024814115206 0.0007059272802 -5.2807895344e-05 0.00016587866979 -0.00032733961192 
-0.00013208606837 0.00025979719129 0.0018034874886 -0.0012368902638 4.0126979768e-05 0.00017080210019 4.7633747559e-05 0.00012400022063 0.00052992772621 
0.0010352171396 -0.0011784111308 0.005146226782 -0.00042863209916 -5.4699056008e-06 0.00065012537443 -0.00084511717881 8.1997635203e-05 -0.00017152331553 
-0.00080595519023 -8.4071016599e-05 0.00053408265318 0.0040476172568 -5.4007000705e-05 0.0013287206809 -0.00022223988409 -9.1302780117e-05 3.9403147563e-05 
-0.0031665195904 0.0014537954703 0.0011833937218 -0.0011644006672 -0.0010214922724 0.0023983730096 -0.00011524885934 9.6540901074e-05 0.0002171595554 
-0.0019199814165 -7.2932843371e-05 0.0001160060227 -0.00067122864422 -0.00025940357639 -0.00082001453769 0.0018213174332 0.0012603683836 0.0030743009852 
-0.00038880521022 -0.00012033434816 -1.3406412672e-05 -0.001584833307 8.874271904e-05 -2.4805087992e-05 0.0052685939917 -0.0079743131823 -0.015202175948 
2.0884131213e-05 -0.00037522240973 -0.00025391683011 0.00038570935446 -0.00011691123589 0.00040834224386 0.0046064991157 -0.002218937615 0.0026924974585 
-0.0039568331544 0.0020362299627 0.0020247745453 -0.00022628894893 -3.2169350448e-05 0.00090434574032 -0.00066611702372 0.0039417619512 0.0043495236167 
0.0019631136955 -4.1727556739e-05 -9.7324338933e-05 0.0065515827671 -0.0062641692153 -0.0021340294448 -0.0026119827429 -0.0027949307677 0.0042503316339 
-0.00228750035 -0.00032912357979 0.0010656073624 0.0022594830769 -0.0014674857567 -0.00061179062704 0.0072939574326 -3.7656335177e-12 -0.016402707734 
0.00030234896734 -0.00024419079518 0.00017534054529 0.00036427047178 0.00014953431205 5.1690908694e-05 -0.11364928547 -0.067006338786 -0.05603568897 
-0.025161017067 -0.0098116071753 -0.04208742747 0.003192221729 0.0014691725973 0.00061706032941 0.0011002816117 -0.0012070589926 -0.0025612970138 
0.004306412796 -0.094825896904 0.083305531465 0.0042209828556 -0.0065612420111 -0.0046712331987 -0.0028283075097 -0.0024905750542 -0.0015816366733 
-0.00010357334973 -0.00011116444273 0.00017927965957 -0.0045991897833 -0.001173117526 0.0036520493464 0.00023681665607 -0.00034620640416 -0.0026060564587 
0.0053310393362 -0.0017950156484 -0.00073431489074 -6.4921086496e-05 0.00037737145299 -0.0022413313844 0.001106485355 -4.6976761713e-05 0.0015575118034 
-0.0042774147282 -0.0025110362964 0.0022714642677 -0.0016439828462 -0.00036524672018 -0.00042215392296 -0.0024045715465 -0.00046756689598 -0.011195243662 
-0.00017970978481 -0.00039403411538 3.0708663178e-05 0.0038340820061 -0.0037263507949 0.00052646891606 0.00037516541346 0.00047520964868 0.0018199831709 
-0.0016326526478 -0.00055225170627 -0.0013236758664 -0.00078149456006 0.00063339906843 -0.0030606179988 0.00021451692509 2.2994329522e-05 0.0058506492122 
0.053214703225 -0.0055654325977 0.014250550039 0.0025365598971 -0.014042827095 0.010820313533 -0.00077419612324 9.4610749793e-06 -0.0059658167226 
0.0012643000452 0.0026554260005 -0.0018957491753 -0.0013780760769 -0.00033155509595 -0.0011255244707 -0.070346875005 -0.012762208943 -0.017718835724 
8.2228688348e-06 0.00016332061131 -2.8447765347e-05 0.00018259481199 -9.8815997513e-05 -0.00028052083422 3.2245402759e-05 -0.013944820849 -0.0022204413851 
-0.00065387357073 -5.6449083584e-06 0.00069789140479 -0.00054185316269 0.00096801968112 -2.5579886566e-05 0.00073260408279 0.00028926813419 0.0009086595938 
0.0001230413954 4.7407442489e-06 -0.00010085762123 -2.5837184387e-05 -5.5423778027e-05 8.315209451e-06 0.00088177684426 0.00081449245582 7.7527286606e-05 
-3.2009347367e-05 1.4510038972e-05 -4.4278485427e-05 -0.00021473417334 1.7981435944e-05 4.4956847289e-05 -0.00061326668975 3.0649492519e-05 -0.00024720821132 
-0.00017217419366 -5.7744571393e-05 0.00074417699065 -0.00011464253971 -2.1580245768e-05 0.00020232999127 -0.0010612879308 6.0826112659e-05 -0.00060739582177 
-0.00040891756636 6.0780970416e-05 -5.9566962568e-05 7.6102990828e-05 -6.2795648343e-05 -2.443848944e-05 -1.0666004343e-05 -4.2463217394e-05 0.00012417247369 
0.00035112809579 -7.2139035839e-05 2.9168427241e-05 -0.00016488602058 7.4775145556e-05 3.1111546635e-05 -0.00019587675911 7.5913526957e-06 -0.00027331254345 
-8.8684990674e-06 0.00015631153689 -0.00045109986469 0.00029432871277 0.00082020300992 -0.00011073896728 -7.0182600675e-05 -4.6660694738e-05 0.00039490732733 
-0.00042227884909 -7.3446200096e-05 -0.00035429459809 7.7913356163e-05 8.910867437e-05 -0.00010761419268 0.00018285790954 8.2962532607e-05 2.1197920403e-05 
0.00012976774231 3.8422237588e-05 4.7851832189e-05 1.3216711374e-05 -0.00032851582806 -8.1019626039e-05 -0.00055969834265 0.00018283580065 0.00019815294857 
0.00016925043611 -2.4353408542e-05 5.921394191e-05 -0.00016025616974 1.0559002506e-05 -0.00015639085926 0.019337666501 0.0076517936739 0.00085843832438 
-0.00047717455384 0.00016472299549 0.00090168861109 -0.0010697632647 -0.00026026086893 -0.0001939509157 0.00052343973628 -0.00017686528924 2.5461297692e-05 
0.0003181360229 0.00010504776033 -0.00017964575021 -0.00010389226315 -7.683661384e-06 -3.7987169917e-05 -1.2336655662e-06 -3.6875900601e-05 0.00016011071688 
0.00024385050728 -0.00080630914371 0.0002407322851 -0.00031547320637 0.00014054647571 0.0003356508122 -0.00077096554393 0.00032046125979 -0.00048636383755 
-0.0018827044612 0.00043651566859 0.00033005620626 -8.9892357109e-05 -0.00043450333274 0.00010432031241 -0.0098739230342 -0.0043426025632 -0.010987879613 
0.00084560435766 -0.0018427016848 0.001266428005 9.7206274418e-05 -0.00067438069915 0.00051126292029 -0.00091089728027 2.2220120979e-05 0.00047225019787 
-0.00041892556757 0.00014210795664 0.00014156487544 -0.00012967261214 -0.00012326883419 -3.9161092727e-05 0.00010523224448 -0.00028513096652 0.00022300938196 
-0.0010488705618 -0.0002908282092 0.00095533614697 -0.0055985077665 -0.0016311297975 0.00084094723392 -0.00075609408909 0.0010104727485 -0.00098339483578 
0.00011936337311 0.00015647564277 0.00021441363122 0.0013094909152 -0.00060288817715 -0.00057259272997 0.0010718624418 0.00013596076318 -0.0013919264921 
0.00039695318621 -0.001013297438 3.5328925543e-05 -0.038102812773 0.018808427188 -2.4757002913e-05 0.0014803069544 -0.006548132716 -0.00019080625411 
0.0012287385126 3.8693072967e-05 0.0036257068456 -0.0016524632103 8.8235705057e-05 -0.00023919470786 0.004163707652 -0.0016676683385 -0.00074349982026 
0.0027714592114 -0.0016713613731 -0.0033708925845 0.0016889517348 -0.0048375228466 -0.0046475932973 -0.0016249630265 0.00057110191582 -0.0017752541784 
0.0016963997329 -0.0021511106621 -0.0058806152492 0.00077564490615 -3.2943566719e-05 0.0028456181083 0.0045664546187 -0.014652621212 -0.02057543095 
-0.0016664616275 -0.00017532733895 0.0022563983943 -0.0016511548467 -0.0003882606215 -0.00035765239851 -0.00068897713244 -7.4322778439e-05 -0.0046017298282 
-0.022898387426 0.019871020397 -0.012814756061 -0.013222105399 -0.0042898343039 0.00013721284718 7.3221755667e-05 4.7323401062e-05 -0.0038761715516 
0.0024087054609 0.00173507858 -0.0023348133818 0.0062609575277 0.0032961130283 -0.0044432653525 -0.0014848411867 0.00045467104882 0.0003804398874 
-0.00090974635786 -0.0011139214987 0.00038769735114 0.023492910875 -4.5089210556e-12 -0.0034095707883 -0.0011404009814 0.00026038774394 0.0019223959283 
-0.003836538821 0.0018981832874 0.0044827713386 0.00058054162463 -0.00094782698631 1.5682540561e-06 0.0029235882283 -0.0020982424946 1.1234123967e-06 
-0.0013254199282 -0.0041153065976 0.0018753539411 -0.0009616688231 0.00062507414031 0.0051059361816 0.00061066537189 0.00015196228527 -0.00020869036713 
0.0042958785314 -0.003952906995 0.00035725686021 0.0026011661952 0.00030573701938 -0.0027263639895 0.0016325467927 -0.0006591866985 0.0010132984751 
-5.1484014555e-06 -7.1725644576e-05 -8.4844557399e-05 0.00021000051863 0.00018529503717 0.00083611478907 5.2905032847e-05 -6.0683522849e-06 -3.0142456951e-05 
-1.1486177416e-05 -0.00042903405715 0.00099105830545 -0.0001581584087 -1.6574491953e-05 5.8532600695e-05 -0.00044144760306 5.6803049794e-05 -4.8775693587e-05 