# vtk DataFile Version 4.1
vtk output
ASCII
DATASET UNSTRUCTURED_GRID
POINTS 1274 float
0.273711 -1.29442 -0.0532393 0.273996 -1.30223 0.0958548 0.279696 -1.29495 0.316985 
0.157856 -1.31612 -0.211115 0.298407 -1.29136 0.178009 0.411643 -1.23461 -0.0671306 
0.381614 -1.29107 0.322064 0.470327 -1.2355 0.493153 0.512165 -1.2437 -0.00790915 
0.637022 -1.2533 -0.00552599 0.53897 -1.34675 0.187587 0.641451 -1.22251 0.434205 
0.852409 -1.2725 -0.151236 0.843572 -1.25445 -0.0829254 0.657818 -1.29635 0.158033 
0.755458 -1.27585 0.26592 0.696171 -1.27028 0.218786 0.794041 -1.20784 -0.0448435 
0.637091 -1.20743 -0.0558632 0.672413 -1.34643 0.00776274 0.715084 -1.19064 -0.0821122 
0.690723 -1.30814 0.278295 0.382481 -1.23171 0.277885 0.615321 -1.27208 0.224718 
0.912915 -1.23656 -0.0766753 0.316474 -1.23954 0.144269 0.657556 -1.20775 0.363556 
0.814304 -1.19491 -0.113122 0.921299 -1.31392 -0.000361811 0.823159 -1.22928 0.0380812 
0.971824 -1.20853 -0.0151927 0.65692 -1.22811 0.0468008 0.557741 -1.21884 0.378453 
1.08233 -1.22271 -0.287833 1.03351 -1.24155 -0.141553 0.503936 -1.22123 0.280662 
0.789963 -1.27871 -0.0125278 0.63496 -1.27371 0.285638 0.40524 -1.25064 0.137847 
0.9501 -1.20221 0.0578153 0.851386 -1.22665 -0.20843 0.798127 -1.23315 0.16014 
0.838263 -1.21212 0.108908 0.748274 -1.22094 0.21611 0.903497 -1.24343 -0.00551415 
0.984995 -1.23809 -0.236636 0.891804 -1.2523 0.291509 0.886985 -1.21789 0.230124 
0.452354 -1.29927 -0.306693 0.167857 -1.33253 0.280785 0.145246 -1.35882 -0.0654382 
0.0370368 -1.33454 0.173599 0.286488 -1.34239 0.471665 0.255894 -1.33817 0.384971 
0.239773 -1.31311 0.164491 0.379701 -1.35337 0.285152 0.151662 -1.34827 -0.274374 
0.359422 -1.41001 0.0556304 0.611905 -1.28941 -0.213256 0.217816 -1.35344 -0.222228 
0.399599 -1.34728 -0.151407 0.371691 -1.35513 0.404584 0.399421 -1.29301 0.394607 
0.278197 -1.34831 0.208891 0.213492 -1.33814 0.00538495 0.485211 -1.26609 -0.187234 
0.413403 -1.3608 -0.0237621 0.583478 -1.34512 0.29984 0.433313 -1.28268 -0.142612 
0.304264 -1.28412 0.242969 0.552709 -1.36028 -0.0195555 0.376763 -1.27369 0.194433 
0.331426 -1.29838 0.0617494 0.330646 -1.26198 0.445512 0.508624 -1.2274 -0.0833117 
0.623538 -1.4128 0.09963 0.54417 -1.2511 -0.240746 0.212443 -1.28185 -0.175366 
0.568409 -1.35602 0.0414382 0.541312 -1.30134 -0.0340959 0.328303 -1.26209 0.297547 
0.451536 -1.28837 0.450346 0.579838 -1.33501 0.469916 0.446568 -1.28089 0.264189 
0.511114 -1.29936 0.291094 0.452011 -1.36109 0.11215 0.615577 -1.30358 -0.0476491 
0.643734 -1.22726 -0.214021 0.972624 -1.28506 -0.28463 0.570347 -1.28622 0.172287 
0.475259 -1.28638 -0.250558 0.764631 -1.28926 0.34391 0.645595 -1.32731 0.220648 
0.577087 -1.23856 -0.0536813 0.999462 -1.26676 -0.0445096 0.741756 -1.25446 -0.0608178 
0.684791 -1.29047 0.049462 0.876392 -1.34915 0.161914 0.603143 -1.25474 0.0798806 
0.780314 -1.23223 0.388025 0.79099 -1.24163 0.464699 0.545524 -1.26308 0.232921 
0.826105 -1.35949 0.207826 0.622041 -1.22495 -0.144762 0.687872 -1.23255 -0.0329901 
0.553122 -1.24056 0.123846 0.732437 -1.23675 0.0213432 0.808463 -1.30048 0.178054 
0.828947 -1.25027 0.340705 0.681233 -1.26708 0.329882 0.809162 -1.22655 0.532537 
0.912565 -1.24729 -0.369457 0.769666 -1.30969 0.0489355 0.437757 -1.256 0.19261 
0.72388 -1.22675 0.535002 1.16349 -1.2211 0.0118836 0.628969 -1.26627 0.530083 
0.734239 -1.22571 0.317688 0.705041 -1.24505 0.415448 0.578942 -1.24322 0.0155141 
0.958664 -1.29252 0.21951 1.10566 -1.23872 -0.16702 0.83905 -1.30529 0.0442255 
0.977018 -1.22596 -0.0923827 0.908388 -1.28982 0.0617401 0.616358 -1.2368 0.147546 
1.32159 -1.19719 0.526132 0.738714 -1.25637 0.161103 0.940389 -1.22518 0.193612 
0.952522 -1.20822 0.422993 1.21188 -1.26338 -0.182669 0.905161 -1.23213 0.0978093 
1.04516 -1.22579 -0.00799422 0.863832 -1.2334 0.171992 1.10071 -1.25816 -0.0320424 
0.963397 -1.26281 0.0317885 0.0867026 -1.41341 -0.246587 0.285897 -1.36073 -0.213029 
0.430059 -1.40919 -0.397639 0.0351687 -1.35958 0.315352 0.213254 -1.32113 0.48254 
0.0966837 -1.40799 0.156708 0.216629 -1.34414 -0.402017 0.500684 -1.31858 -0.348229 
0.0870936 -1.35984 -0.381483 0.493746 -1.34763 0.459787 0.251052 -1.27897 0.529061 
0.147088 -1.35435 0.379412 0.241092 -1.41179 0.297713 0.0966881 -1.35818 -0.0125154 
0.276986 -1.32 -0.156636 0.0801016 -1.35882 -0.288951 0.472401 -1.35385 0.309883 
0.348657 -1.40768 -0.0292771 0.129631 -1.34349 0.230569 0.213287 -1.33457 0.0981646 
0.219667 -1.29565 0.291419 0.320885 -1.29136 -0.295094 0.270955 -1.34801 0.0404039 
0.422542 -1.31833 0.166175 0.0826525 -1.29262 0.215274 0.515562 -1.30041 0.419268 
0.893298 -1.30017 0.533049 0.546834 -1.35552 0.420434 0.240894 -1.29489 0.228662 
0.318218 -1.35521 0.156951 0.318863 -1.35429 0.092591 0.367315 -1.28841 -0.232396 
0.520244 -1.33279 -0.241357 0.492705 -1.2928 0.203991 0.548575 -1.22581 0.527673 
0.644641 -1.28738 0.408257 0.777006 -1.34087 0.461865 0.423857 -1.34429 0.228993 
0.67695 -1.41468 0.136486 0.594883 -1.22172 -0.399396 0.601238 -1.35848 0.188498 
0.854049 -1.22687 -0.316435 0.391289 -1.29513 -0.298436 0.82849 -1.29964 0.283804 
0.759179 -1.28958 0.419823 0.332868 -1.28446 -0.172134 0.571381 -1.27624 0.288794 
0.670144 -1.27242 -0.166634 0.490104 -1.24957 0.145376 0.879445 -1.29193 0.214197 
0.970437 -1.3876 0.0885982 0.535654 -1.28032 0.0564437 0.994811 -1.25501 0.443972 
0.648772 -1.33021 0.341057 0.941742 -1.29602 -0.0632354 0.675406 -1.20733 -0.270362 
0.725731 -1.22894 -0.145017 0.791376 -1.30415 -0.0806685 0.820816 -1.3498 -0.045273 
0.739899 -1.31823 0.17821 0.70299 -1.35499 0.138462 0.85973 -1.29912 -0.0262715 
1.00879 -1.24925 0.0867718 1.06206 -1.27479 0.0386814 0.912355 -1.25098 -0.140357 
0.786907 -1.28871 0.115046 1.10936 -1.28422 0.394579 1.00432 -1.24675 0.188822 
0.818539 -1.24325 0.229011 0.698656 -1.25828 0.110963 0.931734 -1.3613 0.216702 
0.857261 -1.28511 0.119 1.19591 -1.3609 0.11714 0.947392 -1.35389 0.143564 
1.12376 -1.25887 -0.097862 1.02651 -1.26071 0.275267 0.763234 -1.22429 0.0952028 
0.993191 -1.35369 0.196623 0.297591 -1.4153 -0.358824 0.199566 -1.37219 -0.327211 
0.0322036 -1.4135 -0.0345099 0.441419 -1.28068 0.531353 0.0339857 -1.41171 0.191279 
0.0879916 -1.32422 -0.106981 0.340237 -1.30684 -0.394474 0.0369044 -1.36217 0.021159 
0.032648 -1.34529 0.488429 0.346543 -1.40639 0.19848 0.15185 -1.41314 0.444432 
0.324008 -1.34689 0.532516 0.0881595 -1.39522 0.227248 0.326649 -1.35882 -0.265406 
0.218219 -1.35066 -0.12918 0.248747 -1.41429 -0.20224 0.125036 -1.33765 0.152942 
0.31199 -1.29148 0.502062 0.0915343 -1.33737 -0.219739 1.00557 -1.41418 0.472957 
0.234218 -1.40735 0.202626 0.218217 -1.3415 -0.0603954 0.403478 -1.35848 -0.282325 
0.151009 -1.32347 -0.00109195 0.582374 -1.41374 0.215248 0.469106 -1.4131 0.144583 
0.452599 -1.28903 0.340992 0.274054 -1.35689 0.322724 0.194493 -1.36248 0.157652 
0.311673 -1.34571 0.270372 0.802343 -1.4127 -0.226571 0.190314 -1.388 0.264683 
0.356517 -1.34232 -0.062067 0.161669 -1.30574 -0.120852 0.394469 -1.41526 -0.141528 
0.293178 -1.35421 -0.0873793 0.465609 -1.33977 0.396107 0.4793 -1.25484 0.394872 
0.297952 -1.35988 -0.0221719 0.358688 -1.34947 0.0162228 0.800735 -1.29738 -0.21215 
0.379041 -1.36167 0.155164 0.336271 -1.3453 -0.179547 0.352729 -1.29993 0.13198 
0.37768 -1.29363 0.25613 0.347506 -1.33268 0.21158 0.526177 -1.23566 0.436603 
0.447874 -1.2951 0.108933 0.734761 -1.25899 -0.210292 1.05808 -1.36697 -0.147707 
0.310491 -1.30422 0.00389957 0.444077 -1.30491 -0.0197737 0.836498 -1.41477 -0.140699 
0.613581 -1.36224 -0.0114175 0.650087 -1.36313 0.275125 0.501723 -1.35067 0.244409 
0.518507 -1.26045 0.34527 1.14794 -1.36801 0.380314 0.628695 -1.36871 -0.0744675 
1.12043 -1.28366 -0.219147 0.725178 -1.2966 -0.116166 0.853778 -1.32459 -0.107787 
0.687025 -1.36357 -0.0515102 0.746572 -1.34153 -0.0064788 0.897923 -1.35459 -0.0556072 
1.04991 -1.23607 0.467497 0.635926 -1.31486 0.0923453 0.841268 -1.41501 0.254245 
0.652614 -1.2578 -0.0944247 0.895598 -1.35377 0.0896885 1.09828 -1.31882 -0.000835523 
1.01074 -1.31101 0.00851596 0.8133 -1.37063 0.0465983 0.753636 -1.3395 0.1018 
0.695824 -1.29817 -0.0350518 1.0506 -1.34983 0.155046 0.854854 -1.41217 0.0911773 
1.18039 -1.23132 0.410146 0.99448 -1.28993 -0.106264 1.09773 -1.40835 0.17307 
0.963354 -1.37554 -0.0367783 0.9716 -1.31636 0.084977 0.859493 -1.20927 0.455589 
0.0341698 -1.37742 -0.227566 0.0314946 -1.41421 -0.173234 0.0354917 -1.41021 0.467899 
0.0724628 -1.41424 0.30757 0.0839837 -1.37151 0.528368 0.0999022 -1.41553 0.479518 
0.0769494 -1.41064 -0.339119 0.166926 -1.39482 -0.39495 0.384421 -1.36054 -0.403686 
0.0336249 -1.41208 -0.285834 0.0514409 -1.41294 0.0665885 0.264936 -1.4091 0.470979 
0.0356142 -1.41055 0.36379 0.240071 -1.4087 0.370354 0.142862 -1.41182 0.527829 
0.301672 -1.35417 -0.3322 0.142883 -1.41429 -0.331473 0.145817 -1.41471 -0.269138 
0.640514 -1.41013 -0.320262 0.424288 -1.41293 -0.237069 0.115952 -1.41367 0.0605953 
0.0974714 -1.34395 0.422135 0.392153 -1.33181 0.529311 0.109642 -1.3519 0.315458 
0.500995 -1.4062 0.400802 0.17507 -1.37135 0.0535326 0.310243 -1.40789 -0.16835 
0.292563 -1.41419 0.0897193 0.209879 -1.40924 -0.0930925 0.355373 -1.34883 0.469507 
0.316782 -1.32232 0.415517 0.291577 -1.40986 0.249618 0.713815 -1.35035 0.518577 
0.207314 -1.35183 0.331925 0.411236 -1.35004 0.349648 0.453608 -1.34855 -0.224252 
0.383513 -1.35577 -0.218977 0.0655376 -1.35877 0.109094 0.455384 -1.40706 -0.173059 
0.243348 -1.35269 0.26728 0.263737 -1.35818 0.128532 0.420706 -1.35374 0.450507 
0.336696 -1.32088 -0.122267 0.457379 -1.41043 0.0498178 0.62924 -1.28038 -0.37221 
0.523664 -1.29206 -0.29046 0.569955 -1.41475 0.064916 0.519138 -1.28588 0.48941 
0.648225 -1.41098 0.225348 0.550481 -1.35138 -0.296538 0.456637 -1.41397 0.209183 
0.680645 -1.36145 0.394738 1.0728 -1.29122 -0.269959 0.46312 -1.28396 -0.0797597 
0.428129 -1.34146 -0.0861623 0.501945 -1.32638 0.0149338 0.438352 -1.34184 0.0378075 
0.529502 -1.33095 0.355552 0.571535 -1.28967 0.535691 0.942804 -1.25465 0.531367 
[...]
POINT_DATA 1274
FIELD FieldData 10
VELOCITY 3 1274 double
-2.1887378922e-05 -1.2494354791e-05 -0.00014825337466 3.3078058019e-05 3.1211324076e-06 4.1520394447e-05 -0.00068653956954 8.597733879e-05 0.0014510223019 
-1.8183570035e-05 -2.7207454464e-05 3.8072315271e-05 1.211552521e-05 -1.0895902806e-05 2.3808046143e-06 -5.3306422927e-05 5.3265852219e-06 7.1502741444e-05 
-0.00027417026797 -2.969608622e-05 0.00011475036462 -0.00035344926902 1.1896141252e-05 -0.000192812831 -0.00022827646464 6.5476812407e-05 -0.00048901551209 
-0.00021001098766 0.00013429362889 -0.00033202936053 -0.00018206437008 7.1908888552e-05 -6.1976313414e-05 -0.00035085701508 -0.00011011706708 7.8112207604e-05 
-5.3231063732e-05 -8.8853718625e-05 4.15256563e-06 -0.00010502032727 -3.6772346379e-06 -3.1016276714e-05 -0.00011068437189 -0.00058500009219 -0.00014426099243 
-0.00012376670532 -0.00026686780536 -0.00024327413661 -0.00027149620232 -0.00037293235212 -0.00017091929917 -0.0002834571414 -0.0001462503493 -7.2846322517e-05 
-6.8722033668e-05 -0.00029617827401 -8.3785074563e-05 -8.1086257939e-05 1.2439190953e-05 8.4891379964e-05 8.820545009e-05 -0.00016227506338 -0.00010452414992 
-4.6392411353e-05 -0.00015235897354 -0.00014346108935 0.014174748094 -0.01032376465 0.026130908825 -0.00016794968102 -0.00014043441852 2.3220356044e-05 
-0.00012670044647 -2.7633741212e-05 0.00022551140028 -0.079497724806 -0.029755835859 -0.088275420738 -8.5999718045e-05 -0.00020001602854 0.00013294538728 
-0.00022524710755 -9.6022192422e-05 -6.185627358e-05 -0.00014786259957 -7.5909980481e-05 0.00013961744757 -0.00094745741747 -0.00016374488309 0.00025922698939 
-0.00027162047692 -0.00012789865118 0.00025359097499 -3.9044368745e-05 4.9884690142e-05 -0.00032882013109 -0.00031056487885 -0.00022104687941 5.2835806623e-05 
6.1458717628e-05 -0.0001721055902 -8.2853288751e-05 0.0001217500355 -2.4118474844e-05 1.3020741469e-05 -3.0213048455e-06 -0.00021331127249 1.5442517554e-06 
-0.00018088634961 -0.00019871879328 -0.00025921617475 -0.00012804170094 -0.00016533838593 8.7500062442e-05 -8.8570756164e-05 -6.6815081748e-05 -9.7575729462e-05 
0.019648819647 -0.0040570889768 0.019051654949 -5.2394578524e-05 -0.00020490419579 -1.8017285345e-06 -0.00035467748622 -6.3102538985e-06 0.00015438763707 
-0.0003580812908 -0.00013195653018 0.00010348428416 4.0932581983e-05 -0.00059619355811 -0.00048388583504 -0.00026556015309 -7.6986472807e-05 0.00054220716789 
0.00047137659355 -0.00030246787867 0.00024375785235 -8.6571221531e-05 -0.00013691946958 -2.7795992855e-05 -0.00027587710936 -8.303729484e-05 2.5439767583e-05 
-0.00018619354228 -9.4215132181e-05 -0.00014948219325 -2.7689149252e-05 1.9917193784e-05 -2.3255162301e-05 4.329115116e-05 -6.3038929127e-05 2.0818648084e-05 
1.8357346118e-05 -0.00039125102384 0.00013714356357 -0.00014793859101 -6.3342471648e-05 -0.00010514867282 -2.9808630487e-05 -6.8707209745e-05 5.6208159937e-05 
3.0404994048e-05 -0.00029122964646 0.00039609936709 -0.00025092298248 -0.00018463657937 1.0477419634e-05 0.0041631565635 -6.1512340409e-05 0.0038186939163 
3.2092791449e-05 3.7250811754e-08 6.5951590002e-06 -0.00020399807531 -1.7458443479e-05 5.5662563774e-05 -2.7650349563e-05 -1.9937229017e-06 7.5050383004e-05 
-6.8316019205e-05 -2.0156968432e-05 0.00013686705339 -0.00012249718583 -0.00011298294256 9.7980117389e-05 -0.00033939894742 -4.0415780323e-05 -2.5152894534e-05 
2.5454790065e-06 -3.9456510114e-05 4.2763984301e-05 -0.00017243882895 -0.00023664109663 0.00017159736551 -0.00014416379659 -0.00016400169746 -0.00010067076348 
-0.00020491798469 3.2240199551e-05 -3.3557603363e-05 -0.00011214396928 8.8914546037e-05 6.51273709e-05 -9.5970889422e-05 2.8866185348e-05 -1.3523852966e-05 
-3.153616233e-05 -2.4867776908e-05 3.3022746174e-06 -0.00017596357015 3.5346710329e-05 0.00025499536867 -0.00018369375087 -4.5513395168e-05 -0.00010422515821 
2.1842995712e-05 -5.481281953e-05 -0.00010152170365 -0.0001390749166 0.00010384153796 -4.416206868e-05 -1.3419045263e-05 -4.6185060145e-05 -0.00025254514655 
8.960263869e-05 8.999610439e-12 0.00046925680499 -0.00014729871355 -9.8500520264e-05 9.0575987154e-05 3.2686152e-05 -8.5416214333e-05 3.0842055338e-05 
-1.0239448316e-05 4.6253153008e-05 0.00020199166277 0.00031575884495 6.6589528361e-05 9.3689092783e-05 -0.00068165150995 -0.0004539109772 0.00047646130564 
-0.00027106490021 -0.00010099393086 -7.3382444876e-05 -0.00024383014986 -0.00010074217199 0.00016179269745 -0.00014950542502 -4.0183159628e-05 1.8513935469e-05 
-0.0001272039253 -0.00016175635967 -0.00013443169779 -0.00016929200907 -3.3463786409e-05 -8.9252817636e-05 0.00026173788373 -0.00020945798327 -0.00016329840352 
0.00012789674546 -0.0001422053488 1.6150488759e-05 0.00013716411554 -9.8327623908e-05 0.00011669038176 -2.5954634032e-05 -0.00027161462712 -6.9227192965e-05 
-0.00024425280365 8.2249118214e-06 -0.00015050496459 -0.00010943774646 -3.8972732253e-05 1.2999992438e-05 -0.0001542243339 -0.00012931541952 7.3531997033e-05 
-3.4491526239e-05 -0.0003617336027 -0.00031260283752 -7.1579141413e-05 3.8404238909e-05 0.00012732142515 -0.00012798801366 -0.00028901454944 -0.00027135308491 
-1.6112280462e-05 0.00012897893691 -7.1740789015e-05 0.00020464542382 -7.4242390715e-05 0.00022810347613 -6.6362075502e-05 0.00018550859278 -0.00028448529785 
-4.3844874402e-05 -1.6414045393e-05 1.1004610041e-05 -0.00028767225772 0.00011543212992 5.123460853e-05 -4.9856016688e-05 -4.046294166e-05 -0.00018986906043 
-0.00025521139769 9.8235120088e-05 0.00011289317841 -1.1599155229e-05 -0.00029379889671 -7.607760984e-05 -7.6759265382e-07 -8.7006519087e-05 -6.5862717021e-05 
-4.2278052663e-06 -0.00022083735957 -7.2750196201e-05 5.8365180864e-05 4.3255738296e-05 -4.3139026914e-05 8.4115755592e-05 -4.3949738001e-05 -9.4501843414e-05 
-8.8173040852e-05 -0.00028951587407 3.7388069583e-05 -1.9959372887e-05 -2.6792877272e-05 -0.00017020200421 4.1905132429e-05 -0.00029790735071 1.1755337129e-05 
0.0001099823547 -0.00033050750778 -0.00065816210901 -0.00013058332026 -0.0002023814984 -2.3367841903e-05 -0.00017664397475 -1.9363856152e-05 -6.637199142e-05 
3.2369082783e-05 -1.3777375744e-05 -1.5686341289e-06 2.4921364514e-05 -4.7412477318e-05 -0.00024526815658 -3.3070462997e-05 -0.00015030893142 -4.825407045e-06 
2.9570871265e-05 -0.00012036343533 -0.00029537297409 -0.00026035196357 -0.00022919124731 0.00049707149132 -0.00028165821383 -0.00024774772297 -0.00029462107037 
0.00010837233265 -0.00032402916236 -0.00012279454079 8.2809702874e-05 8.4105175227e-06 -0.0002788416771 -0.00024786079245 -7.4234237096e-06 -3.3341187582e-05 
-0.00013917757951 -0.00021941028318 -3.2317789705e-05 -0.00015128673046 -3.3391801931e-05 0.0001289621097 6.4347238464e-05 -0.00038967439962 -0.00017163281961 
-0.00014759565836 -5.0566264782e-06 -0.00015430937481 -0.00012495568766 -0.00053258597409 -0.00053467341125 -0.00016869702561 3.0345106423e-05 0.00014504399263 
-0.00025576137017 -0.00020354361353 7.8329444887e-05 0.00011006854869 -0.00018944701752 -0.00018370195179 -3.6001432201e-05 6.4176631146e-05 -3.6443189189e-05 
-0.00022247202587 -0.00022921357397 -0.00012545174478 7.8734430905e-05 -6.9264814243e-05 -0.00010556676636 -0.00032418933027 -0.00013920201872 -0.00030205988335 
-8.5431157008e-05 -0.00026165475377 9.167547058e-05 -6.6060791571e-06 -1.2778467653e-05 3.0044724916e-05 1.9698296207e-05 0.00011518466589 -0.00016785543862 
4.2399008494e-05 1.2451768204e-05 1.3319292467e-05 -5.4007187434e-06 -4.8317681934e-06 0.00022409581119 4.878601e-06 -0.0001020268793 1.7415302108e-05 
-0.00012050964385 1.3125358182e-05 -7.6516090873e-05 2.116930511e-05 2.6333879144e-05 3.5313338398e-06 -0.00012677258301 6.6846135318e-05 -5.9035756161e-05 
-2.7902123401e-06 1.0928291264e-05 -3.2152047512e-05 -8.9754890554e-05 1.6390866017e-05 -3.9046951352e-05 2.4707070406e-05 -6.5409446269e-05 -9.9775391088e-06 
8.3780209395e-05 -2.9558997839e-06 0.00011588894439 -6.4158468461e-05 -4.4048430437e-05 4.7366372082e-05 -9.9552997163e-05 -1.4911359236e-05 -0.00012662023624 
2.416564312e-05 -0.00020302706787 0.0001430125633 -2.1200226617e-05 2.141899564e-05 -6.014138197e-05 -0.00023122616981 -2.2061805645e-05 -5.6543781558e-05 
6.9025976496e-05 -0.00013388294108 -0.00011149687065 -6.7209398646e-05 7.58783761e-05 -2.5593553298e-06 -7.9546145626e-05 -5.8663165667e-05 -0.00011651671522 
-9.5062339766e-05 -2.9609732678e-05 8.9804786023e-05 -0.00016617970939 4.760361943e-06 5.5435063106e-05 3.8421017522e-05 -1.4375958439e-05 -2.5061653908e-05 
-6.9675050577e-05 3.6855486126e-05 -9.2400959269e-05 -0.00016195891145 -5.2193554235e-05 -2.0511936878e-05 6.4899298931e-05 -0.00021972534021 -0.00029687099449 
-7.040405282e-05 -7.514063934e-05 0.00015053275438 0.00010050521974 -9.553054048e-05 3.2087810363e-05 -0.00010288498003 -5.1536811172e-05 0.00010079883456 
-8.4593489492e-05 7.0606658134e-05 -6.3528643311e-05 -8.5970855398e-05 3.4906302824e-05 5.9239186216e-05 -7.3135287656e-05 -6.6653947152e-05 -9.4589702456e-06 
1.3431612823e-05 -4.3933712444e-05 -0.00027090264593 -0.00020246217238 -1.067276014e-05 0.00015667424863 -2.1938455015e-05 -6.5392777781e-05 -8.6394989173e-06 
-0.00016812647352 5.3660579988e-05 -5.5452706075e-06 -0.00016492081225 7.3866676848e-05 9.1970523532e-05 -0.00035510128045 9.3684289063e-05 -9.4408788301e-05 
-0.00019914066448 5.0200111763e-05 -0.00011773957574 -4.4737934829e-05 -0.00012107639228 1.6124341203e-07 -0.00022017940237 -4.6599344003e-05 0.00011793451346 
0.00025159305591 -0.00018101166669 0.00013677088872 -0.00019449464347 -4.1676126078e-05 -4.4810958399e-05 -0.00010685125968 -7.2636586331e-05 8.014951288e-06 
7.6338710866e-05 2.1428503991e-05 -9.9106362891e-05 -7.9379540366e-05 -2.29567172e-05 7.1365013359e-06 -0.00017992324473 -4.991337852e-06 -0.00010625745835 
-8.026997932e-06 -0.00030322940728 -4.7824411284e-05 2.8224857282e-05 -0.00013451995739 6.0174478328e-06 6.5941725768e-05 8.4563889787e-05 8.709177874e-05 
-5.3275405125e-05 -3.708987517e-05 8.5556342184e-05 -0.00017200033413 5.794640219e-05 7.1251625902e-05 0.00026665119186 -0.00028094569709 -0.00015798933206 
-4.9763084e-05 -3.2787499954e-05 3.3640978894e-05 1.1906598108e-05 -2.7203015931e-05 0.00021673707975 -0.00030356749223 -0.0002481976526 -0.00039332906041 
-0.00010696182064 -0.00013737801668 -0.00015379183371 -7.4885180242e-05 -8.8298551501e-06 -6.6372743699e-05 3.0162460488e-05 -4.0875762786e-05 -0.00018019955465 
0.00013744931438 -0.0005615525014 -0.00074112652361 -0.00036649821486 -0.00041536017502 -0.00045887642141 -3.8596337083e-05 -3.2778169511e-05 0.00010743750455 
9.5514460303e-05 -7.8782378338e-06 -7.1038137347e-05 9.4970815278e-06 -0.00010478702049 -6.5394636821e-05 -5.0993822848e-05 -8.3455251974e-05 0.00025890567985 
8.4547645454e-05 -4.571432247e-05 -0.00011008885678 -0.00026172943551 -0.0011297941758 -0.00099628091325 7.560932443e-05 -3.7433576195e-05 0.00026607684343 
0.00010665935858 -9.458080876e-05 -6.680750575e-05 -0.00089408653346 0.00038349103334 4.2941971347e-05 -0.00019526584724 -0.00020132724077 -0.00031987050282 
7.6730171775e-05 -0.00011231227039 -0.0001096655764 -5.1391317103e-05 -9.7813023624e-05 4.4604423199e-05 7.3121443399e-05 0.00010067999964 0.00010049521 
-0.00017268186628 -0.00022357279267 -0.0002797071449 -7.9524311958e-05 -0.00022973625921 9.4097621116e-05 -0.00052585008453 -0.00018287553888 0.0002275359725 
-0.00013094781317 -0.00033473356795 -0.00021154959723 -0.00028213499157 -8.8487356497e-06 6.2899316476e-05 -3.6674773137e-06 6.5850072798e-05 3.6418579823e-05 
5.0410076138e-05 -0.00012352381566 -0.00010108440414 -4.7949408497e-05 -1.9968866147e-05 1.7428930522e-05 6.5546018696e-05 -0.00027885634597 0.00013974982567 
3.2602497516e-05 -0.00016338888312 -6.4162818081e-05 -1.8060773824e-05 -4.2059735894e-05 -3.5525925489e-06 -2.2495777304e-05 5.2218761037e-05 1.4209660943e-06 
-4.6814394357e-06 4.7688293555e-05 -0.00017770529743 -0.00012738347358 2.451685885e-05 -1.7183924206e-05 -0.00024105326362 0.00021613864949 -0.00016578263202 
-7.6546040719e-05 -2.5180483282e-05 2.2375051013e-05 -2.0437604463e-05 0.0001376430428 6.2176626894e-05 -0.00011609642421 -0.00010768519966 -0.0002628829464 
-5.6350861656e-05 -5.7251362055e-05 0.00021947164854 -0.00061799765893 7.3975388131e-12 0.00080473983807 -0.00019976002323 5.633070706e-05 5.9035926826e-05 
2.0136863945e-06 -6.524551188e-05 -9.0030560571e-05 -3.8224930827e-05 0.00012248949957 -5.8302860274e-05 -0.00014465155972 1.3120242393e-05 1.8490498015e-06 
-0.0001262704607 2.2229645864e-05 -7.7916060655e-05 4.5555837008e-05 -0.0001461911031 0.00020081327609 2.4823224451e-05 4.4032595122e-05 2.0033265869e-05 
-8.33738822e-05 -5.536657091e-05 4.2376302651e-05 -1.4252090734e-05 1.5396940786e-05 0.00011887855066 -3.5843509e-05 2.1856466818e-05 9.6428611407e-05 
-0.0003047236338 -4.8228410371e-06 -1.4504989946e-05 -0.0002594731624 -9.8851512021e-05 1.8470462679e-05 -0.00023360612121 9.5663225667e-06 -8.717019068e-05 
-0.00018321038305 9.7397360248e-05 6.6800944982e-05 0.00012835417025 -3.1017130675e-07 -0.00012690181713 -2.0841322766e-05 -0.00015884977909 -6.817104596e-05 
-3.9662841722e-05 1.1758986847e-05 6.0957055096e-05 2.0237199674e-05 -3.6434538341e-05 2.7618263822e-05 -0.00010938520505 -1.4488586019e-05 2.4643581997e-05 
7.6896897044e-05 -3.1168242862e-05 -2.483984791e-05 -0.00016446964491 -3.7571922627e-05 -8.3398102192e-05 -0.00021407925403 -5.6226681176e-05 -3.5750188221e-05 
-4.4503035402e-05 -2.5145506735e-05 1.6776730646e-05 -0.00026641734055 -8.1251821617e-06 -9.0251213987e-06 0.00012324296246 -0.0001767636719 -0.00011020381495 
-7.6051975384e-05 1.7608297703e-05 -3.2170783166e-05 6.5239189409e-05 0.00022317600847 -0.0001751413878 -8.192247535e-05 -2.9844686463e-05 -0.00010011617915 
-0.00014501987077 -7.9942178018e-05 9.9306631793e-05 -8.7296898676e-05 -4.7236451827e-05 7.1491345705e-05 -0.00028250476979 -0.00015887291836 9.8918177485e-05 
-0.00012279471164 7.6447743205e-06 -7.9894006952e-05 3.6195852013e-05 -0.00029306307708 -6.4714806626e-05 -1.3680369509e-05 -6.526134539e-05 6.1472815463e-05 
-0.0002341265118 3.2945998829e-05 1.0376430756e-05 -0.00043540721626 0.00014820985969 -0.00010458906716 0.00018213571583 -2.4497879277e-05 9.3080753158e-05 
-2.2866566428e-05 -3.3799720821e-05 -7.7648750016e-05 -0.00011781721871 -0.00013598747074 0.00012776683404 -0.00018008931274 -7.9955605552e-05 -3.9090194339e-05 
-0.00018508192746 -0.00027766040932 3.9168923109e-06 -5.3000899299e-05 9.9899951407e-05 -0.00018132776901 5.7586067948e-05 -0.00024654794314 -0.00019652001452 
7.1972137729e-05 -0.00017824136275 -4.1416732959e-05 7.7508358416e-05 -0.00023328835573 -0.00037736494447 -0.00016325619773 1.8957640755e-05 0.0001130209312 
8.1989489304e-05 3.2248275235e-05 1.1330347938e-05 -0.00041211803928 -6.6345645677e-05 5.2855315596e-05 -0.00015197121594 1.5364535972e-05 9.1594541321e-05 
0.00014603660721 -6.5985631319e-05 -8.0558652948e-06 -0.00035324357202 7.5831233257e-05 -0.00034598380739 -0.00030406384922 3.5046681084e-05 4.1681364835e-05 
1.7194050905e-05 -0.00025370457766 -9.3645675789e-05 -3.6594235055e-05 2.9573387229e-06 0.00015755730817 2.6853143752e-05 -0.0002362390572 -0.00024282913669 
7.4545616427e-05 -9.8992218032e-05 -1.0168651923e-05 0.00016242583979 -0.00013596029179 5.2073727278e-05 -0.0001237494562 2.9325022387e-05 0.0001205099651 
-0.00020614622281 -0.0001015773082 -0.00020087899213 -6.9452799207e-05 6.4231457423e-05 -0.00027260806131 -1.4267485624e-05 1.6169675542e-05 0.00025682598915 
0.00011297974365 -0.00017775680688 -5.8560293568e-05 -5.2446242779e-05 -0.0001984431911 0.00018583326395 -0.0004795609019 -5.372878578e-05 -9.3548098711e-05 
-0.00014372010932 -0.00011079662805 8.0496207148e-05 -5.616644379e-05 5.2442632607e-05 2.6768093987e-05 0.014400632979 -0.01591278161 0.053459807984 
1.5301534847e-05 4.4396742165e-06 -0.00027190326398 -0.00012752805336 0.00016853730166 -7.6337188929e-05 -1.0001511808e-06 1.8366054752e-06 -3.0177140821e-05 
-3.447049291e-05 -1.2214994586e-06 0.00019422838784 -0.0001835000266 0.00010292347247 -3.0989619753e-05 1.3827668945e-05 2.1414377107e-05 0.00029379129452 
8.7103868257e-05 6.8256508905e-06 -0.00012217661904 -1.4482141171e-05 7.7366065635e-05 4.4720416082e-06 1.589135032e-05 5.3930058379e-06 -6.6000739083e-07 
3.5834067251e-05 -3.3745382718e-05 -4.6847154189e-05 -5.1616514291e-05 6.3384397776e-06 -3.0179405907e-06 -0.00022362097108 -6.9139118147e-05 -3.3823148364e-05 
4.2084567878e-05 -4.4262518061e-06 0.00020930165653 0.00010341931082 1.9710835099e-06 9.4467191668e-05 -0.00021094163491 5.3107711631e-06 -0.0023721789783 
-1.3364647453e-05 -3.2590103031e-05 3.4266603284e-05 1.9109037813e-05 -6.8786335314e-05 -2.2360472088e-05 -7.471837054e-05 8.8925617089e-05 2.0994467865e-05 
-0.00013885471763 2.5413617631e-05 -1.4984500843e-05 1.1981185502e-05 1.3474718902e-06 -4.3125217185e-05 -6.6211688734e-05 4.2944817714e-12 -0.00029810141837 
1.3597100678e-05 3.5622904478e-05 3.0557153067e-06 -5.6589639629e-05 -9.6213646425e-06 1.1330035824e-05 -7.6399894647e-06 2.2454169875e-05 0.00012815774912 
7.408656387e-05 -5.1686196713e-06 -0.00022094676251 -1.929988679e-05 -6.0663600481e-05 -0.00017453831059 -0.00011098593914 -6.301037845e-05 -1.6424105351e-05 
-1.720414483e-06 -3.7458983471e-06 -4.539779739e-05 -5.47016925e-05 -0.00014504400119 9.237658458e-05 -0.00017781976677 -4.360008907e-05 8.7603748495e-05 
-7.4200723232e-05 0.00010627424885 -6.0108493456e-05 -6.4454728563e-05 -2.5399625602e-05 5.3655274085e-05 3.8711625031e-05 -1.5678753438e-05 6.3299182979e-05 
-0.00020828114217 5.8299298198e-05 0.00017951046718 -0.00025141885699 -4.417588173e-05 -3.2789623036e-05 0.00011395174226 -2.0651306961e-05 7.7736794237e-05 
-4.3885952465e-05 -0.00014289572157 2.4447535856e-06 -0.0001649964552 4.2718274192e-05 2.1400437304e-05 -1.7834658998e-06 -1.8406722189e-06 3.8419086656e-05 
-0.00017520726793 4.1260788682e-06 -2.5945996048e-05 -0.00010012431405 -2.5438157912e-05 -3.6519393757e-05 -0.0001442461264 -5.2071861959e-05 7.252640154e-05 
0.00013957837058 -7.6285214142e-05 -3.6491134893e-05 -8.4799856346e-05 -3.2737043826e-05 9.6506558862e-05 -0.0001500593182 -0.00036861966461 -0.00038362552493 
-0.00014372364439 -9.8092046509e-06 -1.5824847987e-05 8.9836275067e-05 -5.5805538706e-06 8.1539155245e-06 -0.00034986134901 -2.0016344161e-05 0.0002519463573 
-0.00030326817506 6.2893521511e-05 4.4017978008e-05 0.00017142823056 0.00020115884373 -0.00021856904626 -5.741356863e-05 -6.3400814122e-05 -6.0770890259e-05 
-0.00011152563097 -2.2630262423e-05 5.3838806838e-05 -8.7604094864e-05 -0.00010722241555 0.00010781500523 -8.8734926893e-05 -4.1759453627e-07 -1.6396793395e-05 
-1.3772957316e-05 1.4823088707e-05 3.0109829373e-05 -3.490870428e-06 0.00010257829683 -0.00012420423217 -1.4343503659e-06 2.162748193e-06 -7.6289657656e-05 
-0.00020068051873 -0.00031962997979 5.3935954012e-05 -9.3451107907e-05 -6.9381104995e-05 4.0632384211e-05 2.697191219e-05 -0.00020514440144 -5.7089699425e-05 
-4.4382007657e-05 1.5806607536e-06 0.00010729990112 -0.000374200096 -1.518428931e-05 -3.7172996724e-05 0.00018623116975 -2.5854595727e-05 -7.3117120257e-05 
0.00015044244036 -0.0001894215555 -0.00034265796334 -0.00026993756848 -0.00033036746787 -0.00022072562987 -0.00025088056956 -9.6521894128e-05 4.6893030075e-05 
3.8525769893e-05 1.4405828273e-05 -0.0002584319822 -0.00011126941306 1.8831008023e-12 4.9845776729e-05 -5.1139028712e-05 -9.3339344134e-05 -0.0002534783757 
-6.1584291858e-05 0.00011862053452 -2.788065064e-05 -0.00039064158165 -0.00012021637546 0.00012646628757 -6.8194983238e-05 -6.2316721699e-06 -0.00017084619264 
-5.1876706524e-05 -5.966541262e-05 0.00015985613175 -0.00012059666586 -0.00012837658532 9.5608759796e-07 -0.00010397891453 -3.9099397924e-05 -9.3349862006e-06 
0.00013768729716 3.9722602881e-05 -4.8541326069e-05 -4.0724451087e-05 4.1673569504e-05 -5.4185055956e-05 -0.0001698068928 -3.5154484254e-05 -0.00010161156959 