# vtk DataFile Version 4.1
vtk output
ASCII
DATASET UNSTRUCTURED_GRID
POINTS 1274 float
0.418734 -1.27845 -0.0359596 0.406981 -1.29393 0.12901 0.409927 -1.28476 0.292486 
0.198165 -1.33924 -0.1524 0.708766 -1.16794 0.00969239 0.730412 -1.27016 0.0505856 
0.475215 -1.29153 0.309432 0.692891 -1.22252 0.374754 0.809552 -1.10065 0.0538991 
0.870507 -1.08876 0.0856243 0.650215 -1.35618 0.176535 0.824119 -1.21042 0.349074 
0.880396 -0.603618 0.0121663 0.796859 -0.372829 0.0259753 0.866711 -0.937673 0.170035 
0.856123 -0.973608 0.257958 0.852385 -0.675872 0.209909 0.816199 -0.277634 0.0677198 
0.821796 -0.699697 0.0237417 0.866249 -1.27865 0.111083 0.825853 -0.605114 0.0775206 
0.881238 -1.12559 0.221302 0.793998 -0.486078 0.278849 0.798166 -0.744361 0.202513 
0.802784 -0.211944 0.0305854 0.829189 -0.784519 0.102134 0.830066 -0.297437 0.270475 
0.787114 -0.141424 0.033999 0.853357 -0.520396 0.0912212 0.840063 -0.400184 0.140291 
0.864552 -0.199797 0.0635628 0.811698 -0.529302 0.155986 0.836275 -0.452861 0.228283 
0.921063 -0.234632 0.0854946 0.944917 -0.405607 0.0459198 0.797474 -0.313797 0.156081 
0.893206 -0.674627 0.0618679 0.83612 -0.373298 0.219323 0.821079 -0.555457 0.219792 
0.782704 -0.126491 0.102977 0.887149 -0.273078 0.0405659 0.895994 -0.380348 0.195792 
0.806109 -0.193535 0.193067 0.812 -0.212947 0.264976 0.808706 -0.194488 0.118337 
0.954091 -0.288393 0.0201132 0.793958 -0.138406 0.251284 0.782498 -0.133981 0.166456 
0.601434 -1.29382 -0.274567 0.170217 -1.34721 0.291047 0.189731 -1.37864 -0.0468686 
0.0812182 -1.32809 0.175047 0.346537 -1.35261 0.476782 0.306303 -1.35564 0.390465 
0.291065 -1.31631 0.198535 0.455333 -1.34738 0.268179 0.214114 -1.34604 -0.231155 
0.408615 -1.41001 0.0488757 0.775218 -1.28448 -0.0823966 0.303634 -1.34982 -0.215337 
0.476556 -1.34878 -0.132341 0.454671 -1.32533 0.394997 0.517306 -1.29717 0.391441 
0.357716 -1.34082 0.222671 0.277822 -1.3533 0.0298956 0.734905 -1.2262 -0.012865 
0.513094 -1.35293 0.0144946 0.72412 -1.35139 0.281069 0.522676 -1.29561 -0.102404 
0.514036 -1.24209 0.251528 0.707966 -1.3349 0.0470001 0.650157 -1.22354 0.251704 
0.500534 -1.27201 0.115327 0.399935 -1.27333 0.418802 0.691191 -1.28279 -0.0294762 
0.695484 -1.4128 0.123865 0.763395 -1.17384 -0.0558191 0.418853 -1.26726 -0.142855 
0.7558 -1.35342 0.0837727 0.783362 -1.22085 0.0767026 0.813355 -1.16838 0.292062 
0.590499 -1.263 0.402999 0.674686 -1.34999 0.436113 0.566623 -1.30009 0.252778 
0.621615 -1.26929 0.288467 0.551892 -1.31709 0.126468 0.830085 -1.17504 0.0530621 
0.896684 -1.14047 -0.0544118 1.00538 -1.27156 -0.197128 0.77682 -1.25056 0.194745 
0.692495 -1.26714 -0.134913 0.880691 -1.18623 0.308292 0.831751 -1.20573 0.240986 
0.806652 -0.966019 0.0430636 0.897205 -0.35305 0.0317763 0.804972 -0.881111 0.0333012 
0.87016 -0.884437 0.112122 0.949283 -1.00773 0.215291 0.850996 -1.09742 0.162542 
0.871662 -0.901424 0.270859 0.874786 -0.686579 0.285674 0.859237 -1.10598 0.279461 
0.93834 -1.07927 0.194858 0.867794 -0.72907 -0.00794968 0.865343 -0.742122 0.0696002 
0.851271 -1.03692 0.11154 0.876948 -0.644253 0.136674 0.923197 -0.90435 0.21123 
0.936163 -0.737603 0.253091 0.829285 -0.621233 0.281477 0.891755 -0.832931 0.32198 
0.93897 -0.474692 -0.0215708 0.905349 -0.84377 0.0645167 0.857923 -0.839593 0.168977 
0.847968 -0.396453 0.278435 0.996177 -0.294224 0.0944645 0.915415 -0.562154 0.269891 
0.893852 -0.627146 0.245248 0.869611 -0.48791 0.294663 0.849349 -0.749479 0.152322 
0.894163 -0.300271 0.223136 1.01094 -0.448522 0.0142326 0.94904 -0.805394 0.109121 
0.978007 -0.213067 0.045777 0.898102 -0.385009 0.0953183 0.86749 -0.497687 0.162844 
0.890401 -0.167832 0.260951 0.916285 -0.532958 0.206068 0.924557 -0.183117 0.189583 
0.908458 -0.241414 0.289776 1.02373 -0.274708 0.0319001 0.875207 -0.227025 0.151784 
0.937512 -0.265335 0.145734 0.862734 -0.228118 0.220216 0.9342 -0.325225 0.0968359 
0.875952 -0.305564 0.118911 0.0940154 -1.41341 -0.264655 0.370282 -1.35755 -0.198771 
0.455153 -1.40919 -0.39764 0.0351682 -1.33872 0.329553 0.26133 -1.33381 0.473786 
0.105268 -1.40722 0.182737 0.247571 -1.34615 -0.363746 0.583136 -1.33042 -0.342363 
0.168626 -1.34199 -0.313009 0.557121 -1.333 0.464047 0.328011 -1.28896 0.500803 
0.171948 -1.34925 0.367314 0.27414 -1.41179 0.295048 0.0982074 -1.35231 0.0187016 
0.331488 -1.33518 -0.137428 0.115886 -1.34767 -0.268911 0.540469 -1.3485 0.305654 
0.384379 -1.40766 -0.0281327 0.184966 -1.33031 0.231046 0.265045 -1.35353 0.114777 
0.348369 -1.29297 0.314818 0.474945 -1.27662 -0.247068 0.329071 -1.34946 0.0744486 
0.532661 -1.27417 0.192206 0.241266 -1.28253 0.153741 0.630171 -1.32194 0.396393 
0.925055 -1.29302 0.533048 0.613175 -1.36078 0.443632 0.391685 -1.28209 0.228615 
0.377911 -1.34806 0.150903 0.398479 -1.35021 0.0899434 0.63537 -1.28925 -0.170421 
0.615626 -1.329 -0.225907 0.658725 -1.30765 0.227928 0.655749 -1.22832 0.444206 
0.771251 -1.29465 0.410289 0.829457 -1.28382 0.446217 0.527926 -1.35783 0.222057 
0.748965 -1.41455 0.158982 0.720735 -1.19863 -0.1263 0.756927 -1.36391 0.19606 
0.856159 -1.2504 -0.163158 0.803307 -1.13835 -0.00674899 0.929473 -1.12902 0.277561 
0.856834 -1.04515 0.331953 0.582209 -1.25114 0.0518891 0.786449 -1.12792 0.194519 
0.835103 -1.03824 0.0159326 0.695896 -1.24688 0.205144 0.934583 -0.807498 0.221473 
0.950793 -0.951717 0.153205 0.785017 -1.16226 0.120707 0.960569 -0.606016 0.272034 
0.806823 -1.25144 0.28833 0.875317 -0.465257 0.0371389 0.93173 -0.704103 -0.0158484 
0.919435 -0.993355 -0.001221 0.899738 -0.88147 0.00726631 0.911868 -0.936155 0.0489884 
0.897597 -1.04062 0.164023 0.848507 -1.28455 0.234765 0.906678 -0.570448 0.0639875 
0.973278 -0.395803 0.1153 1.00547 -0.493063 0.0660048 0.956243 -0.531089 0.0383715 
0.915536 -0.851981 0.150363 0.999764 -0.791385 0.244709 0.98412 -0.313776 0.167564 
0.908642 -0.424215 0.253166 0.90935 -0.726866 0.173015 0.990059 -0.929442 0.203971 
0.932725 -0.608264 0.181484 1.02648 -0.954028 0.121954 0.971355 -0.76426 0.169071 
0.999826 -0.352712 0.0519107 0.958263 -0.390961 0.208823 0.925313 -0.450249 0.170031 
0.999994 -0.595885 0.202658 0.31164 -1.4153 -0.360603 0.213544 -1.39592 -0.324943 
0.0391855 -1.4135 -0.0235836 0.524484 -1.28265 0.531018 0.0339926 -1.41171 0.18909 
0.133305 -1.34421 -0.0897282 0.361857 -1.30448 -0.394467 0.0368998 -1.38001 0.0389389 
0.0930972 -1.31919 0.533189 0.372988 -1.40604 0.189284 0.171265 -1.41314 0.440198 
0.375453 -1.3297 0.532519 0.103922 -1.37714 0.246843 0.385888 -1.34751 -0.262418 
0.264691 -1.35454 -0.155072 0.283101 -1.41429 -0.20204 0.155571 -1.33645 0.166138 
0.413276 -1.29418 0.493855 0.0915024 -1.39066 -0.185529 0.994157 -1.41418 0.444444 
0.256472 -1.40735 0.211958 0.310281 -1.32432 -0.0201998 0.466939 -1.35061 -0.252426 
0.194478 -1.3375 0.0175146 0.615148 -1.41374 0.209546 0.499152 -1.41302 0.145573 
0.562685 -1.28288 0.33328 0.341608 -1.35499 0.331864 0.227552 -1.35222 0.171905 
0.387375 -1.3465 0.285878 0.836407 -1.4127 -0.185825 0.22412 -1.37433 0.276874 
0.437265 -1.34937 -0.0289749 0.231615 -1.31269 -0.0542699 0.43489 -1.41526 -0.137699 
0.370329 -1.33068 -0.0531282 0.570149 -1.34499 0.374991 0.656063 -1.26973 0.342468 
0.368409 -1.34894 0.0141834 0.450129 -1.35088 0.0419296 0.871474 -1.30413 -0.0906619 
0.444585 -1.36126 0.139636 0.396516 -1.36069 -0.142207 0.46611 -1.2912 0.173792 
0.494245 -1.30154 0.237426 0.425794 -1.348 0.202884 0.721059 -1.23296 0.314172 
0.592542 -1.27692 0.159902 0.859283 -1.22936 -0.081098 1.03076 -1.35545 -0.0721133 
0.464986 -1.29207 0.0129049 0.61178 -1.30005 0.0272104 0.925024 -1.40887 -0.0295697 
0.788579 -1.30735 0.0564061 0.759675 -1.29498 0.250006 0.615283 -1.35721 0.254735 
0.690577 -1.28683 0.289665 1.06337 -1.36351 0.353884 0.758633 -1.36111 0.0177781 
1.01744 -0.508095 -0.0142019 0.899535 -1.12146 0.0322224 0.963089 -0.836228 0.0321354 
0.848593 -1.29973 0.0524107 0.907418 -1.21738 0.125386 0.932452 -1.26438 0.0709993 
0.98374 -0.691405 0.292144 0.84391 -1.23137 0.184759 0.889113 -1.31957 0.268724 
0.901246 -1.04325 0.0483071 0.954195 -0.903478 0.101387 1.01357 -0.849181 0.0832045 
0.968818 -0.699603 0.0532694 0.931779 -1.00967 0.118938 0.905871 -1.24701 0.188901 
0.884645 -1.15408 0.0978208 0.98343 -0.866034 0.161656 0.918229 -1.105 0.139098 
0.945929 -0.243257 0.220454 1.00851 -0.919016 0.0588826 0.992417 -1.00942 0.152109 
0.974853 -1.00259 0.0592644 0.964459 -0.576395 0.10813 0.942932 -0.489066 0.288764 
0.0341706 -1.39171 -0.226372 0.0314968 -1.4142 -0.153825 0.0354921 -1.40902 0.468386 
0.0822885 -1.41424 0.295321 0.0946336 -1.38913 0.528367 0.116035 -1.41552 0.469861 
0.0802581 -1.40598 -0.341099 0.178868 -1.40388 -0.39495 0.405239 -1.36291 -0.403671 
0.033625 -1.41208 -0.291034 0.0821507 -1.41294 0.0804065 0.306903 -1.4091 0.4644 
0.0351451 -1.41055 0.342219 0.262162 -1.4087 0.364997 0.162176 -1.41183 0.531976 
0.361578 -1.34355 -0.329187 0.145768 -1.41429 -0.333448 0.156858 -1.4147 -0.272009 
0.660982 -1.41013 -0.307098 0.444913 -1.41294 -0.237745 0.146171 -1.41364 0.0902484 
0.14238 -1.35685 0.428113 0.444004 -1.34279 0.529314 0.109778 -1.34447 0.327186 
0.536228 -1.40621 0.402979 0.206917 -1.38237 0.0832264 0.339148 -1.40739 -0.162015 
0.338629 -1.4142 0.0952147 0.254573 -1.41082 -0.0651601 0.434913 -1.34545 0.456034 
0.376531 -1.33802 0.418812 0.322804 -1.40986 0.245093 0.765061 -1.34576 0.526354 
0.236624 -1.34507 0.338094 0.475761 -1.35687 0.338514 0.536819 -1.3503 -0.224172 
0.429257 -1.33602 -0.192752 0.10789 -1.3547 0.11016 0.488419 -1.40706 -0.181368 
0.315259 -1.33794 0.276646 0.31674 -1.34776 0.151096 0.499787 -1.35065 0.432755 
0.421383 -1.33107 -0.0933893 0.518328 -1.41043 0.0577041 0.7165 -1.2619 -0.319857 
0.676311 -1.30667 -0.228685 0.622477 -1.41474 0.0675987 0.62485 -1.29523 0.466618 
0.70914 -1.41098 0.24045 0.612563 -1.36469 -0.281372 0.491434 -1.41397 0.209445 
0.771966 -1.35473 0.364687 1.04194 -1.28334 -0.109907 0.611562 -1.28114 -0.0364623 
0.517617 -1.34873 -0.0531385 0.653258 -1.36598 0.0408605 0.574516 -1.3511 0.0625969 
[...]
POINT_DATA 1274
FIELD FieldData 10
VELOCITY 3 1274 double
-0.84276470539 0.058827921099 -0.30097332979 -0.64202192055 0.09686589978 -0.14026276801 -0.37340922697 0.070809906787 -0.011764312587 
0.02389391869 0.050443544491 -0.38166243866 -1.2929324584 -0.70160598812 0.65703271187 -0.87649907589 -0.031719860021 -0.41412267353 
-0.66212822572 -0.0098459467112 -0.26324339504 -1.0944697962 0.4234754785 0.59961010731 -0.85524760332 -1.5795341161 -0.155428848 
-0.71487293692 -2.9647064354 0.21932854054 -0.44351448652 -0.17439459973 -0.02829425212 -0.87200417393 -1.3010991956 0.97266414483 
0.29603652209 -4.1638226289 -0.50681440691 0.35041661959 -3.1389227883 -0.085161457284 0.40840497368 -4.9137481018 0.02647955751 
0.33856198507 -4.8213195544 0.13598063451 0.45593459204 -4.4149570855 0.090294791215 0.63431562972 -2.9842409591 0.13736430357 
0.32421620255 -4.1611900826 -0.23644295194 -0.33597432569 -1.4111982307 -0.47452976514 0.40349472055 -4.1178484745 -0.17237461721 
-0.5005886072 -2.9774714425 0.49776662627 0.13600701996 -3.9186640679 0.12889617903 0.0061214028643 -4.3845759203 0.10408898979 
0.77279446137 -2.9679137054 -0.055283742968 0.32684913308 -4.7079341629 -0.10800858534 0.75510472975 -3.2956750353 0.13526849908 
0.92264820556 -2.8393141085 0.00353693486 0.22261843089 -4.0236715292 -0.14154992344 0.6350499126 -3.4409258323 0.10957125828 
0.82889338425 -3.025435693 -0.12200939154 0.12977856984 -4.0184162573 0.050628154428 0.52633024148 -3.7792263348 0.30863599168 
0.82040374111 -3.1473077593 -0.27772523162 0.44144250415 -3.7732703846 -0.17614774503 0.41764998093 -3.4836925473 0.18124086079 
0.11436812116 -4.5135758226 -0.17719023338 0.23282928736 -3.5608236103 0.17424690419 0.30578724849 -4.1038075679 0.047608388251 
1.0208649697 -2.9816050254 0.10977592678 0.27649065481 -3.2790686851 -0.025022371218 0.19065306789 -3.689095157 0.038011599526 
0.96246331901 -3.1011745546 0.027731105771 0.96855991223 -3.1600556844 0.0032903157419 0.92050636845 -3.0592246384 0.022300419108 
0.20544723679 -3.2829695759 -0.29089023018 1.0421245035 -3.0718082007 0.095947752652 1.0104181884 -2.9811349389 0.11050799712 
-0.67866859321 -0.48782122616 -0.2183995957 -0.024425971005 -0.047672518349 -0.1105048184 -0.035970912752 0.071797788451 -0.081901312907 
-0.23149800997 0.0202073026 -0.11784527143 -0.27084215011 0.10740713158 -0.051910407104 -0.13774637805 -0.07365650361 0.13194388253 
-0.22287049709 0.076443784755 -0.21168380118 -0.36607835707 -0.45857844351 -0.077666714894 -0.88991800422 -0.56192048479 0.030737721323 
-0.12356634336 0.00066923487827 0.037986310836 -0.86473412865 0.17576516909 -0.46977989585 -0.41815486276 0.05696505797 -0.14188324736 
-0.58080971535 -0.077551800005 -0.016111961173 -0.40872816495 -0.026519111363 -0.033920870647 -0.39309603984 -0.048107391016 0.042892797284 
-0.50146375829 -0.04246207801 -0.098123165521 -0.30332181558 0.14550694745 0.080727133837 -0.61116855599 -0.021022095179 -0.60592059882 
-0.467364064 0.05149418452 -0.27946658989 -1.0978544114 0.033183994377 0.23238595437 -0.56668931771 0.10889192614 -0.16467932214 
-0.78682364411 0.06537957838 -0.12085115236 -0.78931444134 -0.047168622979 -0.56780353074 -1.0385231749 0.070112262904 0.026979898649 
-0.93383130924 0.046320606738 -0.074717199876 -0.16350934514 -0.029603071014 0.085714062015 -0.60676050248 -0.16650209006 -0.36968120897 
-0.38941566615 0.00047130576253 -0.19051801931 -0.69679077754 -0.92065686479 -1.7100032754 -1.1939415698 -0.24466287564 -0.1023846085 
-1.0025045375 0.1860149541 -0.14487696398 -1.5205193023 -1.3766338806 -1.4097226298 -1.1808655682 -3.9863856191 0.048585774258 
-0.98590199293 -0.32611150583 0.32404799962 -0.45534541597 0.059031503521 0.081597491865 -0.61440148722 0.28678266306 0.13690911164 
-0.71377886956 0.21348712418 0.44821238382 -0.37908168445 0.12399835092 0.085899041674 -0.54774036174 -1.5497755894 -0.32594357445 
0.49930400405 -1.7879397496 -1.1350703329 0.23233268867 -0.66660694762 -0.66441388422 -0.83173816202 -1.110592707 -0.92833157028 
-0.85400164591 0.28370625367 -0.43457099465 -0.44819336215 -2.3582379717 0.76827913115 0.25611495802 -2.3781530169 -0.80676714238 
0.21663882077 -5.0077404699 0.020265959856 0.66640021905 -3.3603035105 -0.012092483562 0.05490019338 -4.9347582421 0.00070048278386 
0.24904993429 -4.9492516891 0.0029861036372 -0.10917410855 -4.8976777852 0.066637641807 -0.28135163921 -3.6583770221 0.02469446122 
0.35849842632 -4.7849433642 0.028269685887 0.53764916156 -4.2911132325 0.19779007979 -0.82121333259 -3.8712539582 0.48229621198 
-0.22079481221 -3.4795379536 0.27086028964 0.071078019707 -4.66222519 -0.27233564993 0.26808408187 -4.633309768 -0.11750180512 
-0.40776463937 -2.9597622472 0.72985190412 0.21966454578 -4.5085048334 -0.12368457126 0.43151294477 -4.9559390431 0.032574215825 
0.46022162386 -4.6372455599 -0.03024187354 0.34725652172 -4.2877370361 0.11117261655 0.10610136053 -4.5864769337 0.28992679511 
0.25108915745 -3.7168063217 -0.43543956988 0.19677681255 -4.9081939164 -0.089468396968 0.11977168747 -4.8798161571 0.066876627792 
0.60624903155 -3.7150144004 0.15869726658 0.48396544971 -3.4175898746 -0.20302946493 0.2237943906 -4.3187165749 -0.0055592714837 
0.47749467498 -4.3515711295 0.07498864594 -0.13172129407 -4.2320506014 0.21869428414 -0.023179567899 -4.7062441009 -0.16437601595 
0.62133845499 -3.4915486414 -0.06540436917 0.14212276836 -4.0640999061 -0.1846786682 0.23333140032 -4.9429116809 0.051966959256 
0.14914587827 -2.8982703244 0.15020254028 0.6112343082 -3.6815669876 -0.027548935258 0.25834958065 -4.2083178546 0.029619553178 
0.7289688365 -3.0134475487 -1.2655085027e-07 -0.041333208381 -4.237906302 0.016311388765 0.61589361968 -2.939958205 -0.09659031015 
-0.17141523952 -2.8837250427 0.24309904648 0.2092834261 -3.3241713654 -0.15335497873 0.74560511918 -3.1976392328 -0.10191245517 
0.30522383223 -3.2903209211 -0.19467093226 0.93852473785 -3.2346295213 -0.018942810772 0.39802443632 -3.3654068689 -0.15299261877 
0.36069309922 -3.3762404304 -0.22689709531 0.0044409695413 6.4603260751e-05 -0.016723397672 -0.33360647264 -0.042154865095 -0.10304758281 
-0.19293119177 0.00067012865491 -0.0034229902134 0.0032239320906 -0.10434496243 -0.040140371002 -0.073233722363 0.0768759018 0.073563179608 
0.0015513012569 -0.048234951693 -0.049002771991 -0.24872737395 0.043917021419 -0.18965483958 -0.37671081061 -0.014223417126 0.034222373945 
-0.29203501662 -0.10402964732 -0.33950496751 -0.50806098301 0.096494293742 0.025018069879 -0.47123091481 -0.064012424579 -0.096979398626 
-0.014049447193 0.0035363130316 0.0078695619518 -0.1357803352 -0.0002359044133 0.0016788289482 0.034722100317 -0.00098481172199 -0.2843262647 
0.012419993386 -0.024739865185 0.16505627525 -0.14283080914 0.041051488641 -0.14069774401 -0.20848072473 -0.14071152275 -0.042528278558 
-0.075788460407 0.0083404322352 0.0074115084035 -0.10760591764 0.013636544678 -0.1160521201 -0.35921141345 -0.005876174466 -0.14067722405 
-0.80008936299 0.060399561255 -0.099602671142 -0.65364016719 -0.030185074898 -0.34743844137 -0.26429298499 0.020016675448 0.041117585183 
-0.57321129288 -0.23171776286 -0.24270024225 -0.94979595362 0.11313473251 0.069001039446 -0.42388497831 0.025169555007 0.066237839045 
-0.34439953986 0.068665830135 -4.0186513262e-05 -0.42073072091 0.058019877903 0.15995480113 -0.76783432204 0.10142638419 -0.052733646475 
-0.30559904028 -0.036114512223 -0.017761061739 -0.25885312177 0.0053255979975 -0.0024203036186 -0.86634585618 0.14492696379 -0.33172447593 
-0.67266115073 -0.29908756764 -0.072567715276 -0.91629507756 0.51680137142 -0.13609830688 -0.74426176444 0.23868154039 0.81338386745 
-0.37293665769 0.25324711097 -0.099814418958 -0.18417188619 -0.24321734277 0.47012117113 -0.3615524308 0.21249055643 -0.056114894211 
-0.32860195897 0.017717318548 -0.19062586384 -0.89838834156 0.012097700992 -1.1718831372 -0.8679144324 -0.070076963546 0.14918802476 
0.22760460095 -0.59540849008 -1.3798165203 -1.0681410429 -0.70163917072 -1.026865575 -0.16071647016 -3.1475209815 0.24661958317 
0.0071571199494 -5.156160925 0.3022494945 -0.99880729001 0.16419142942 -0.58731987051 -1.1951323861 -2.6334528586 1.299140598 
-0.62085638551 -2.28452963 -1.2490660661 -1.4263497542 -0.33523594535 -0.041846762861 0.10982115663 -4.8062072514 0.15763057306 
0.44765527969 -5.0282274911 0.025017522555 -1.0331321501 -1.1539749036 -0.86968852189 0.1527713268 -4.3970832946 0.085645719774 
0.019187538579 -1.0173876135 0.47944151562 0.36603441502 -3.6456062678 0.010064477391 0.048439797456 -4.5224923956 -0.30558913905 
-0.66251826563 -3.1399224271 -0.94926786831 0.18154641576 -4.9744532046 -0.11416338814 0.28964646736 -4.9896516289 -0.10689583856 
-0.15665786844 -3.4673966353 0.15436666752 -1.1390474958 -2.8482415814 0.056163558532 0.091140472404 -4.2685175177 -0.3304223897 
0.14817983051 -3.7951053132 -0.020342963496 -0.11904795896 -4.0273372355 -0.2058150264 0.059867577164 -4.1569711611 -0.41033669438 
0.13810830385 -4.8380119539 0.052718183781 0.16681958357 -4.9327565592 0.1190795261 0.15876268683 -3.5424742988 0.056489652222 
0.045702586977 -3.9844150764 0.07344841638 -0.070701413353 -4.5675584088 0.0011683096037 0.41515546123 -5.0221499823 0.062064760829 
0.092529052803 -4.338834457 -0.061514407686 0.13647428587 -5.0269935491 -0.019333891823 -0.10699592127 -4.7368591436 0.0074251175178 
0.40895867503 -3.6953326708 -7.8597558309e-05 0.19607657171 -3.6881208846 0.15650193767 0.096199218725 -3.9760933131 0.014450624714 
0.098830168685 -4.2833318109 -0.076189127886 -0.05207144932 -0.0022256398234 0.027610348467 -0.025645059628 0.039649106969 -0.0048529301112 
-0.16590852747 5.0687405155e-05 0.028956340102 -0.45294744966 0.054006419192 0.024222926238 0.00218230053 -2.1471643226e-05 2.7097831371e-05 
-0.079511806909 0.083081706201 0.0085229359312 -0.12830937864 -0.056545500617 0.0066447825244 0.0022383463895 0.10130334328 -0.11966247352 
-0.22150805763 0.077099709288 -0.0049875337044 -0.1082464618 -0.022220061965 0.049273214244 -0.069734684345 -1.6793495687e-05 -0.019864651757 
-0.37411130101 0.11298591637 -0.0021087384843 0.1010342148 -0.23229496682 0.019928490817 -0.27546761285 0.010665152409 -0.046992347318 
0.040256581883 -0.12928476827 0.17172304147 -0.067262542319 -0.0099310387186 -0.016284297318 -0.28617942622 0.03474066117 -0.041081778867 
-0.52023755597 -0.13534103238 -0.29222501014 -0.0066906072943 0.35366148718 -0.049269875011 0.011218132612 -0.046469600564 -0.15743543401 
-0.15975073043 0.0013386959443 -0.10066890027 -0.7569391879 0.050330124909 -0.31674073634 -0.16889130157 -0.028546321661 -0.25608788179 
-0.77564082821 -0.40768438098 -0.1761843306 0.066248200982 -5.2512075425e-05 0.10576876306 -0.10158624119 0.023293134227 0.042957205848 
-0.47400557876 -0.053378962251 -0.035869788169 -0.34204944899 0.095005996782 0.029712772951 -0.29870873351 -0.063700536082 -0.097492744635 
-0.47240613979 0.084778888236 -0.10216285517 -0.19400665547 0.00037602583486 -0.14279056015 -0.10730882491 -0.066961832453 -0.21333460488 
-0.54666882106 0.083057487331 -0.16362746872 -0.17734847123 0.14878414916 -0.19797999349 -0.034233476755 -0.0001107733816 0.047720851648 
-0.72588822022 -0.13943981023 -0.23318258765 -0.25704911143 0.073059229593 0.14735103134 -0.59351216387 0.21921818952 0.082057396926 
-0.42077541872 0.13116033033 -0.27438583224 -0.43833776496 -0.10148602753 -0.18861034494 -0.40275180725 -0.55545004731 -0.81204547382 
-0.46820163073 -0.086678060792 -0.11669783985 -0.25756114375 -0.048763529758 -0.14876996626 -0.77333465654 0.075720445911 0.038555934389 
-0.69148713931 0.0018607556213 0.0031749549769 -0.5715539305 -0.078465852404 -0.050142102823 -1.111022452 -0.29112417337 0.55414065709 
-0.74394150365 0.50369295086 0.07547141054 -0.67324716113 -0.60015054105 -0.84580182546 0.25169060741 -0.17702859071 -0.18622585775 
-0.85533633956 -0.046436749879 -0.29843159742 -1.1318885186 0.048556428008 -0.55794870883 -0.5080223902 -1.561063239 -0.46352977671 
-0.9367118629 -0.038244339689 -0.47913108819 -0.64953862468 -0.2623352159 -0.021609907828 -0.59363861848 0.30627010314 0.011760594154 
-1.2182508798 -0.29930526895 0.68329914232 0.10810928572 -0.073421916325 0.15744072284 -1.0997118066 -0.2870356518 -0.1265417228 
0.36990668985 -3.8974082545 -0.28467993549 -0.70585552009 -2.0414342034 -0.45042558968 0.18857218469 -4.8076707069 -0.10354053792 
-0.71629716426 -1.9950035605 -0.81461948888 -0.2238699279 -2.3395125348 -0.52808147461 -0.17192391338 -1.5664590171 -0.88952240422 
0.33144635998 -4.3981414812 0.18408451149 -0.25905491186 -2.6044901592 -0.84480971734 -0.077858197508 -0.962498698 1.3199582893 
-0.92587488859 -4.1575273943 -0.68459801536 0.10977059041 -4.9223501033 0.025328671214 0.10187895677 -4.9662715305 -0.054879749733 
0.10149718495 -4.6708097051 -0.21962743595 -0.43752147329 -2.9445416256 0.27978295334 -0.311570235 -2.7775217193 -0.48573004568 
-0.43040626985 -2.2363894915 0.037339435315 0.13349807 -4.9749961549 0.047472688275 -0.13361743563 -3.1051523876 0.016246269031 
0.25395936434 -3.0334009572 0.012536555362 0.0363128316 -5.0899444672 -0.017768356599 -0.0073459911447 -4.9189308344 0.021643638373 
-0.25560007316 -3.6463547225 -0.25370588443 0.024533520835 -4.2072582414 -0.22792261685 -0.1148683531 -4.060145981 0.37484798447 
-0.0004725533193 0.13959387404 -0.048826837551 -1.2761180523e-06 5.8239897388e-08 -0.043805135335 -0.00046855907069 -0.1165863818 -0.019501458473 
-0.08253651756 0.0035861491022 0.11170210257 -0.022462003806 0.081047917873 -0.00053922754226 -0.043731189646 9.3750516067e-05 0.028394282919 
-0.0052109936701 0.03003599657 -0.0019778791623 -0.01986837602 -0.0012193554099 -0.0020691847259 -0.17937014852 0.062062061539 0.0018916888127 
-0.00062423427954 -0.00066820465025 -0.0038321799252 -0.057089991619 0.0037498914984 -0.12387414281 -0.13564535722 -0.0006039953461 0.014251724618 
0.0028283227155 6.6965983772e-05 0.20619608746 -0.1664213046 0.0035163203134 0.008247608599 -0.048148670698 -0.00019881083532 0.00031603919379 
-0.24470533802 -0.12637371706 -0.031409758798 -0.011769548328 -0.0018887956189 -0.0012074475947 0.002940418892 0.00039442277999 -0.005373486364 
-0.09884728405 6.5583522533e-05 -0.22496908012 -0.028348157515 0.0040924734379 0.045855460835 -0.04387823162 0.0078598629208 -0.18642310273 
-0.35966942218 -0.16907451493 -0.097788811943 -0.3585541006 0.17660780275 0.0014206424295 0.01466479075 -0.023491597549 -0.043173364431 
-0.21454782094 -0.0046423814661 0.0039081534009 -0.0028005168647 -0.043020705986 -0.072387094613 -0.097737099732 -0.079892194569 0.019936565984 
-0.10113794345 0.0097171169957 -0.023887781794 -0.091304372111 0.0016831540237 -0.036711396069 -0.33957490834 0.043012759038 0.014373097449 
-0.32647754846 0.028335364199 -0.096409179152 -0.18600794675 -0.00070660798244 -0.025857444176 -0.18241000314 0.014192365525 -0.035863209024 
-0.093169892411 -0.052630569374 -0.17653310054 -0.22931328208 0.1002202512 -0.016986046893 -0.39162325253 0.17249209473 0.03131789277 
-0.31986548014 -0.4708544708 -0.20709319485 -0.13393430832 0.078839379208 -0.1904440148 0.021889830198 0.00032804131838 0.032419212214 
-0.46255298754 -0.40183658451 -0.067535415168 -0.30611158802 0.018022260094 -0.21908393882 -0.32550234777 -0.0551007446 -0.1606443238 
-0.55798648063 0.039591928229 -0.033494665489 -0.17297607724 5.4830374201e-05 -0.1651272114 -0.27604298799 -0.20637932063 -0.53203148155 
-0.76879664677 0.15644110277 -0.27656150157 -0.40105335967 -2.1891904169e-11 -0.05029226587 -0.58607351703 0.01322854895 0.51202384915 
-0.64386580074 0.010794980092 0.064479900589 -0.092085292474 -0.00073221256197 -0.35849768912 -0.078037167256 -0.00012343991777 0.065924652896 
-0.41913409179 0.080098247337 0.1867498146 -0.085956344232 -0.13452782832 -0.5605820073 -1.0356327114 0.26384170162 -0.50558153857 
-0.66914839873 -0.16036320441 -0.27661787935 -0.96541536559 0.26180981711 -0.47418159982 -0.9177364968 0.030255413688 -0.38179108686 
-0.34237559489 0.026567024189 0.070279053904 -0.52952891009 -0.073787484843 -0.00051042583765 -0.01427998968 0.18656247043 0.47302874614 
0.16729457535 -0.35856607032 0.2913487384 -0.23625285931 -0.41967586279 0.56448621479 -1.278204246 -0.22466121816 -0.095686704459 
-0.41769341287 -1.856642863 -0.91989556911 -0.88185254072 -0.17221860933 -0.87156362797 -0.84477817473 -0.048820114136 0.044897149553 
-1.4912229301 -0.2506974405 -0.47357694201 -0.71372207938 3.836528444e-07 -0.36939301843 -0.87049301665 0.1193166695 0.0213359306 
-1.0544656008 -1.2161351415 1.3733075442 -0.45382532232 -0.22761518967 0.27787571616 0.25712426733 -2.1977943576 -0.72820648512 
-0.76098278085 -2.9353781245 -2.0509961643 -0.045847576578 -4.1032668777 -0.72020531052 0.098358936006 -1.5026943701 -0.9307979842 
-0.1078567798 -1.5639906795 -0.24281707458 -0.71574701373 -3.2023591064 0.41001424133 -0.98214394209 0.1734415395 -0.2666021683 
0.20521633672 -2.6297039485 0.44034776384 0.17025937855 -1.9706259451 0.68996415412 -0.35584800797 -2.6299319927 0.0094234813029 
-0.12553623755 -0.72236990462 0.028090692344 0.067858540772 -4.5337503553 0.25825226062 0.070024459473 -4.6478440062 0.41810316369 
-0.63673574795 -1.1319781264 -0.47761933619 -0.24559517513 -1.7255693118 -1.2941783734 -0.53720428868 -3.1096547469 0.21577597065 
-0.39327693495 -3.2476586093 0.31249413093 0.52571169051 -2.0735467313 0.10273986761 -0.22608896745 -3.5362087864 0.166948413 
-0.00084032923324 0.00024820391428 -0.0028755618334 0.0032463120228 0.037547785367 0.088136208343 -0.072783638016 -0.05230759978 -0.00041204004461 
0.0019716202135 -0.00038924879903 -0.0025905971189 -0.08975477028 0.000329777392 -0.00095050790444 -0.089768175484 -0.00016688297402 0.00098803246312 
0.0049100813821 -9.3946697396e-13 0.11872139823 -0.028263762181 -0.029776186368 -0.00061262361215 -0.04381017355 0.050647430766 -0.0090770592469 
-0.15491569639 -0.0050948093373 -0.10902622248 0.0012519557146 -0.00057904162019 0.00010670312342 -0.088921922192 0.00047836384396 -0.00062690527077 
-0.054907201593 8.4657214461e-05 -0.19039581215 0.080756484451 0.0016983839367 0.026454240052 -0.090941051093 4.0665020358e-08 1.5215457762e-05 
0.00069444598618 0.016238689465 -0.009933220815 -0.27047567537 0.050223256514 0.00052732917424 -0.018416001225 -0.00083666407915 0.0044323662191 
0.22560134631 -0.067676767529 -0.15577955798 -0.045614087233 0.00047361456271 0.0062641685406 0.099422289406 9.1200192654e-05 -0.018234452226 
-0.18283494978 -0.031225635518 -0.16672623248 -0.076416370867 -0.00069820124204 -0.10420329695 -0.20819352726 1.1468972749e-08 0.0023454238951 
-0.24879282382 -0.00091908265678 -0.10019896052 -0.045696748787 -0.018602998177 -0.11457967418 -0.40519985222 -0.048593244296 0.063295640453 
-0.028189938888 -0.018097965412 -0.018048961523 -0.024614522291 -0.045674869258 -0.1028420424 -0.25494429374 -0.065470127484 0.16846023261 
-0.26871613645 -0.044269689911 -0.11856362637 -0.3412853848 -2.6570588255e-12 -0.0093159819694 -0.029194477008 0.00054635548089 -0.089851602038 
-0.3041383756 -0.068347725975 0.071184242443 -0.29677849936 0.025933575024 -0.19032069087 -0.11457672592 -0.0062761060762 0.032094454954 
-0.13853927941 -0.00039876085742 0.0094982218285 -0.11164849181 -0.046140168836 -3.2698363044e-06 -0.35890714556 0.0043785489292 -0.10740400883 
-0.72956424408 -0.2311729392 -0.18644604077 -0.10071438171 -7.7103536745e-05 0.055628483806 -0.21336865871 0.016695592132 -0.25143249575 
-0.016539717363 0.00037106087835 -0.047602765679 -0.24605100352 -0.17670307266 -0.29430924903 -0.42570831832 3.6394307544e-12 -0.055478800393 
-0.33819822472 -0.088077309323 -0.083298190734 -0.35426829849 0.4091036491 0.38756746327 -0.35840422378 0.49717748498 0.55246024163 
-0.60453466189 0.14495146477 -0.02079452005 0.33186103459 0.00021456887744 0.00049683474197 -0.61981340578 0.14608588041 -0.45365340221 
-0.07720904778 -0.036489537683 0.00060794834182 -0.57002390369 0.095007789902 0.078867229543 -0.20066085977 0.06293170042 -0.14691334154 