# vtk DataFile Version 4.1
vtk output
ASCII
DATASET UNSTRUCTURED_GRID
POINTS 1274 float
0.2737 -1.29444 -0.0532721 0.2738 -1.30221 0.0958697 0.279455 -1.29493 0.317476 
0.157836 -1.31609 -0.211097 0.298469 -1.29135 0.178132 0.41158 -1.23458 -0.0670722 
0.38147 -1.29109 0.322095 0.470111 -1.23549 0.493042 0.512136 -1.24367 -0.00804753 
0.637017 -1.25333 -0.00560577 0.538902 -1.34673 0.187571 0.641268 -1.22259 0.434263 
0.852401 -1.27256 -0.151221 0.843505 -1.25445 -0.0829346 0.65775 -1.29641 0.158051 
0.755446 -1.27585 0.265873 0.696148 -1.27028 0.218752 0.793887 -1.2079 -0.0448749 
0.637071 -1.20754 -0.0559672 0.672393 -1.34643 0.00779282 0.715174 -1.1907 -0.0821592 
0.690721 -1.30816 0.278249 0.391011 -1.23455 0.281843 0.615239 -1.27211 0.224769 
0.91285 -1.23662 -0.0765243 0.301146 -1.25049 0.128388 0.657535 -1.20786 0.363645 
0.814151 -1.19495 -0.113148 0.921238 -1.31394 -0.000303521 0.82294 -1.22933 0.0380675 
0.971729 -1.20857 -0.0150615 0.656925 -1.22809 0.0466917 0.557607 -1.21897 0.3785 
1.08237 -1.22282 -0.287855 1.03358 -1.24156 -0.141536 0.503964 -1.22133 0.280684 
0.789882 -1.2788 -0.0125906 0.63492 -1.27381 0.285659 0.405221 -1.2507 0.137815 
0.951782 -1.20268 0.0593922 0.851372 -1.22676 -0.208428 0.79809 -1.23315 0.160131 
0.83818 -1.21213 0.108858 0.748313 -1.22101 0.216016 0.903399 -1.24345 -0.0053304 
0.985212 -1.23823 -0.236516 0.891766 -1.25238 0.291562 0.886737 -1.21792 0.230224 
0.452245 -1.29929 -0.306738 0.167829 -1.33255 0.280786 0.145279 -1.35887 -0.065434 
0.0370367 -1.33473 0.173661 0.286388 -1.34238 0.47162 0.255853 -1.33816 0.384992 
0.239862 -1.31336 0.164928 0.379617 -1.3534 0.285126 0.153341 -1.34834 -0.272884 
0.359441 -1.41001 0.0556446 0.611827 -1.28941 -0.213214 0.217785 -1.35345 -0.222131 
0.399547 -1.34728 -0.151348 0.371612 -1.3552 0.404636 0.399231 -1.29303 0.394596 
0.27813 -1.3483 0.208905 0.213423 -1.33832 0.00545614 0.485152 -1.26616 -0.187264 
0.41326 -1.3608 -0.0237462 0.583434 -1.34512 0.299875 0.433243 -1.28266 -0.142618 
0.304148 -1.28407 0.243105 0.552681 -1.36025 -0.0194601 0.376678 -1.2737 0.194423 
0.331415 -1.29838 0.0617593 0.330551 -1.26193 0.445497 0.50864 -1.22745 -0.0833993 
0.62349 -1.4128 0.0996281 0.544067 -1.25117 -0.240687 0.212456 -1.28188 -0.17534 
0.568417 -1.35599 0.041524 0.541461 -1.3013 -0.0340637 0.328028 -1.26216 0.297799 
0.451382 -1.28843 0.450305 0.579795 -1.33503 0.469937 0.446538 -1.28094 0.264219 
0.511108 -1.29948 0.291018 0.451944 -1.36111 0.112131 0.615719 -1.30367 -0.0477304 
0.643816 -1.22734 -0.214017 0.972674 -1.28512 -0.284549 0.570382 -1.28634 0.17226 
0.475131 -1.28636 -0.250607 0.764597 -1.28925 0.34392 0.645535 -1.32733 0.220663 
0.577096 -1.23873 -0.0537981 0.999452 -1.26673 -0.0444223 0.741704 -1.25461 -0.0609424 
0.684798 -1.29044 0.0494448 0.876488 -1.34918 0.162029 0.603157 -1.25473 0.0797755 
0.780289 -1.23223 0.388043 0.790817 -1.24158 0.464732 0.545527 -1.2631 0.232843 
0.826046 -1.35951 0.207774 0.622024 -1.2251 -0.144783 0.687874 -1.23261 -0.0330835 
0.553125 -1.24072 0.123786 0.732424 -1.23673 0.0212682 0.808458 -1.30048 0.177995 
0.828904 -1.25043 0.340764 0.681252 -1.2671 0.329834 0.809249 -1.22666 0.532537 
0.912608 -1.24742 -0.369679 0.769607 -1.30984 0.0489698 0.437676 -1.25602 0.192617 
0.723892 -1.22675 0.535002 1.16353 -1.22116 0.0117779 0.628941 -1.26634 0.530089 
0.734242 -1.22571 0.317639 0.704912 -1.24513 0.415677 0.578905 -1.24336 0.0154005 
0.95872 -1.29271 0.219438 1.10571 -1.23872 -0.167114 0.838977 -1.3053 0.0442015 
0.976928 -1.22605 -0.0923613 0.908297 -1.28983 0.0617875 0.61631 -1.23687 0.147473 
1.32158 -1.19721 0.526092 0.738707 -1.25645 0.16102 0.940203 -1.22527 0.193813 
0.952336 -1.20831 0.423012 1.21194 -1.2635 -0.182797 0.905112 -1.23207 0.0977545 
1.04507 -1.22588 -0.00802017 0.863859 -1.23344 0.171982 1.10055 -1.25826 -0.0322241 
0.963357 -1.26295 0.0318202 0.0866866 -1.41341 -0.246622 0.285889 -1.36071 -0.213077 
0.430066 -1.40919 -0.397639 0.0351688 -1.35957 0.315456 0.213241 -1.32116 0.482543 
0.0966549 -1.40799 0.156661 0.216644 -1.34413 -0.402017 0.500613 -1.31857 -0.34825 
0.087089 -1.35983 -0.381503 0.493701 -1.34762 0.459723 0.251038 -1.27899 0.529061 
0.147138 -1.35435 0.379449 0.241059 -1.41179 0.297742 0.0966609 -1.3582 -0.0125662 
0.276973 -1.32006 -0.156593 0.0800937 -1.35881 -0.288976 0.472242 -1.35385 0.309868 
0.34863 -1.40768 -0.0292575 0.129618 -1.34347 0.230549 0.21324 -1.33461 0.0981152 
0.219623 -1.29566 0.291457 0.320783 -1.29137 -0.295062 0.270946 -1.34801 0.0404265 
0.422486 -1.31831 0.166116 0.082578 -1.29265 0.215256 0.5156 -1.30055 0.419079 
0.893232 -1.30019 0.533049 0.546919 -1.35563 0.420408 0.240813 -1.2949 0.228687 
0.318171 -1.35522 0.156981 0.318848 -1.35428 0.0926211 0.367247 -1.28845 -0.232388 
0.520264 -1.33285 -0.241392 0.492629 -1.2928 0.204045 0.548569 -1.22585 0.527673 
0.644584 -1.28733 0.408236 0.7769 -1.3408 0.462051 0.423754 -1.34427 0.228935 
0.676888 -1.41468 0.136497 0.593843 -1.22165 -0.399396 0.60117 -1.35846 0.188488 
0.85417 -1.22697 -0.316337 0.391186 -1.29514 -0.298444 0.828449 -1.29971 0.283789 
0.75913 -1.28958 0.419826 0.332809 -1.28447 -0.172122 0.571334 -1.27626 0.28874 
0.670144 -1.27256 -0.16664 0.490116 -1.24962 0.145386 0.879494 -1.2919 0.214251 
0.970389 -1.38758 0.0886593 0.535633 -1.28033 0.0564654 0.994964 -1.25517 0.44389 
0.648758 -1.3302 0.341081 0.941763 -1.29606 -0.0631536 0.674746 -1.2077 -0.272316 
0.725692 -1.22899 -0.145093 0.791326 -1.30416 -0.0806826 0.820858 -1.34982 -0.0453765 
0.739916 -1.31832 0.178075 0.702839 -1.35505 0.138459 0.859688 -1.29911 -0.0262844 
1.00885 -1.24926 0.0866888 1.0621 -1.27485 0.0386351 0.912311 -1.251 -0.140214 
0.786913 -1.28876 0.114975 1.10924 -1.28468 0.39417 1.00432 -1.24676 0.188921 
0.818569 -1.24331 0.229001 0.698516 -1.25826 0.110983 0.931612 -1.3614 0.216514 
0.857263 -1.2851 0.118951 1.19586 -1.36095 0.117189 0.947487 -1.3538 0.143647 
1.12379 -1.25897 -0.0979789 1.02648 -1.2608 0.275312 0.763134 -1.22437 0.0951799 
0.993114 -1.35392 0.196531 0.297586 -1.4153 -0.358842 0.199584 -1.37218 -0.327216 
0.0322034 -1.4135 -0.0345471 0.44138 -1.28069 0.531353 0.0339863 -1.41171 0.191288 
0.088013 -1.32431 -0.106994 0.340228 -1.30685 -0.394473 0.0369041 -1.36214 0.021162 
0.0326481 -1.34527 0.488336 0.346487 -1.40639 0.198484 0.151779 -1.41314 0.44442 
0.323968 -1.3469 0.532516 0.0881255 -1.39518 0.227293 0.3266 -1.35887 -0.265516 
0.218212 -1.35071 -0.12911 0.248414 -1.41429 -0.201808 0.124926 -1.33761 0.152984 
0.311957 -1.29151 0.502025 0.0915101 -1.3373 -0.219781 1.00553 -1.41418 0.472955 
0.234161 -1.40735 0.202619 0.218255 -1.34159 -0.0603205 0.403449 -1.35846 -0.282322 
0.150979 -1.32351 -0.00109037 0.582369 -1.41374 0.215325 0.469053 -1.4131 0.144593 
0.452448 -1.28905 0.341035 0.273955 -1.35693 0.322742 0.194378 -1.36247 0.157605 
0.31158 -1.34571 0.270401 0.802438 -1.4127 -0.226501 0.190273 -1.38806 0.264681 
0.35654 -1.34234 -0.0620763 0.161681 -1.30576 -0.120825 0.394474 -1.41526 -0.141452 
0.29321 -1.35424 -0.0873731 0.465509 -1.33981 0.396062 0.479221 -1.25487 0.394887 
0.297914 -1.35989 -0.0221592 0.358557 -1.34946 0.0162543 0.800795 -1.29748 -0.212169 
0.378993 -1.36167 0.155169 0.336257 -1.3453 -0.179576 0.352665 -1.29994 0.131962 
0.377642 -1.29364 0.256154 0.34744 -1.33268 0.211623 0.526066 -1.23574 0.436676 
0.447889 -1.29511 0.108889 0.734793 -1.25914 -0.210314 1.05807 -1.367 -0.147684 
0.310337 -1.30422 0.00396159 0.443903 -1.30488 -0.0198044 0.836504 -1.41477 -0.140686 
0.613583 -1.36228 -0.0114224 0.650042 -1.36313 0.275154 0.50161 -1.35071 0.244412 
0.518417 -1.2606 0.345291 1.14795 -1.36798 0.380283 0.628709 -1.36882 -0.0745596 
1.12047 -1.28373 -0.219183 0.725211 -1.2967 -0.116354 0.853697 -1.32461 -0.107724 
0.686983 -1.36359 -0.0514821 0.746435 -1.34157 -0.00647972 0.897893 -1.35459 -0.0555779 
1.04997 -1.23609 0.467514 0.635926 -1.31484 0.0923159 0.84115 -1.41501 0.254143 
0.652679 -1.25792 -0.0944808 0.895583 -1.35378 0.0897732 1.09824 -1.31889 -0.000953297 
1.01075 -1.31108 0.00852038 0.813324 -1.37068 0.0466087 0.753549 -1.33953 0.101896 
0.695714 -1.29824 -0.0351537 1.05054 -1.34981 0.154997 0.85485 -1.41217 0.0912864 
1.18043 -1.23142 0.410085 0.994539 -1.29001 -0.106144 1.09765 -1.40835 0.17301 
0.963318 -1.37555 -0.0367344 0.971562 -1.31632 0.0849799 0.859406 -1.20941 0.455597 
0.0341698 -1.37738 -0.227633 0.0314944 -1.41421 -0.173329 0.0354918 -1.41021 0.467892 
0.0724401 -1.41424 0.30768 0.0839313 -1.37145 0.528368 0.0998882 -1.41553 0.479589 
0.0769784 -1.41064 -0.339138 0.166915 -1.39478 -0.39495 0.384429 -1.36054 -0.403686 
0.0336249 -1.41208 -0.285877 0.0513819 -1.41294 0.0665789 0.264853 -1.4091 0.47098 
0.0356015 -1.41055 0.363875 0.240133 -1.4087 0.370395 0.142753 -1.41182 0.527041 
0.301562 -1.35419 -0.332139 0.14291 -1.41429 -0.33147 0.145815 -1.41471 -0.269134 
0.640489 -1.41014 -0.320229 0.424304 -1.41293 -0.237067 0.115887 -1.41367 0.0605189 
0.0974786 -1.34394 0.422118 0.39211 -1.33181 0.529311 0.109643 -1.35189 0.315524 
0.500977 -1.4062 0.400745 0.175049 -1.37137 0.0534458 0.310246 -1.40789 -0.168349 
0.292569 -1.41419 0.0897221 0.209847 -1.40936 -0.0930752 0.355273 -1.34886 0.46955 
0.316748 -1.32229 0.415515 0.291516 -1.40986 0.249617 0.713829 -1.35035 0.518623 
0.207225 -1.35181 0.331988 0.411089 -1.35007 0.349654 0.453631 -1.34855 -0.224238 
0.383538 -1.35578 -0.218956 0.0655009 -1.35876 0.109064 0.455361 -1.40706 -0.173037 
0.243272 -1.3527 0.267287 0.263667 -1.35817 0.128555 0.420608 -1.35378 0.450561 
0.336716 -1.32092 -0.122281 0.457327 -1.41043 0.0498696 0.628013 -1.2811 -0.373731 
0.523568 -1.29204 -0.290469 0.569923 -1.41475 0.0649282 0.518917 -1.28589 0.489536 
0.648228 -1.41098 0.225376 0.550458 -1.35132 -0.296632 0.456626 -1.41397 0.209153 
0.680618 -1.36145 0.394761 1.07277 -1.2913 -0.269914 0.463037 -1.28393 -0.0797596 
0.428045 -1.34144 -0.0860907 0.501928 -1.32635 0.0149114 0.438338 -1.34184 0.0377737 
0.529389 -1.3311 0.35556 0.571496 -1.28971 0.535691 0.942802 -1.25474 0.531367 
[...]
POINT_DATA 1274
FIELD FieldData 10
VELOCITY 3 1274 double
-4.0492988572e-05 -2.4994341101e-05 -2.5016962067e-05 -0.00037672354486 3.59782586e-05 3.0114636189e-05 -0.0001813397004 -2.4110995861e-05 0.00013903461652 
-1.8705773591e-05 -8.8689822132e-05 0.00012193087584 -0.00012030334522 -2.1844659478e-05 8.8191627031e-06 -9.9951707276e-05 0.00010494298157 0.00013125062872 
-0.00024356122742 -4.9030903072e-05 3.2146903735e-05 -0.00027675733743 -7.7101707599e-06 -0.00013633438079 -2.4027677361e-05 -1.5648711182e-06 -9.0262818704e-05 
5.9704719415e-05 -8.4757524077e-05 -0.00012700073043 -0.00015208347964 3.7627076914e-05 -1.2087832887e-05 -0.00018675365475 -0.00028600703176 -5.1554937554e-05 
-9.0775408927e-06 -0.00012903766643 4.0757418e-06 -0.00015178355116 1.8055368404e-05 -1.6275018291e-05 -4.1213934092e-05 -4.3190041842e-05 5.1154914248e-05 
-1.5420295979e-05 5.3587836725e-05 -1.9217370899e-05 -3.5909639401e-05 7.9058987927e-05 -4.5489948781e-05 -0.00026818716656 -9.533029126e-05 -4.5712787934e-05 
-3.1855236164e-05 -0.00014045022347 -0.00025752008002 -0.00013335705537 0.0001109122265 4.3499010169e-05 0.00021409546374 -0.00011294911362 -0.00014267318201 
6.3941388251e-05 -5.4494954225e-05 -0.00022153925025 -5.7402396937e-05 -3.8625858419e-05 9.4513226266e-05 -0.00013176134331 -5.5141897843e-05 0.00018514252076 
-0.00014021322958 -0.00010473325589 0.0002112265656 -0.00015718964864 -2.974476697e-05 -8.9555588953e-07 -3.4836006623e-05 -0.00013905972525 3.2536239169e-05 
-0.00032217707022 -9.9764385526e-05 -6.645794031e-05 -5.8345909794e-05 -7.6525475418e-05 0.00010349765353 -0.00035528988054 -6.200135068e-05 -6.1687871177e-05 
-0.00014266036381 -4.9602753343e-05 0.00017402081957 3.996495355e-05 4.7151995329e-05 -0.00017844138928 -0.0002441615141 -0.00016641793322 -2.479576025e-05 
0.00013030670881 -0.00020313317416 2.4906013131e-05 0.00013134906374 -2.8236869253e-05 5.6368954908e-05 3.8536242343e-05 -0.00018296795713 3.7024216926e-05 
-0.00012361609879 -0.00017829211707 -0.00017843345659 -8.6411896956e-05 -0.00020568222388 -1.140198454e-05 -4.0092922724e-05 -0.00014964878072 -6.9267264752e-05 
0.00041723990498 -0.00022304201727 0.00028409008505 -2.2237884141e-05 -0.00022049776984 -2.5458752556e-05 -1.6495731588e-06 1.9248926302e-05 -1.3473972947e-07 
-0.00013643367128 8.6381519782e-07 -0.00011398842853 0.0001197453259 -3.6631037834e-05 -0.00016188334542 -0.00016024931063 1.7198679969e-05 0.00023156033854 
0.00041427005763 -0.00021715423708 0.00016629605003 -4.0060064156e-05 -0.00013583783162 3.4733057113e-05 -0.00042872099059 -5.7832329929e-05 0.00015132952018 
-0.00017245552125 -4.8029999147e-05 -4.4767641343e-05 -5.2698665819e-05 -6.3880112998e-05 -2.7813510655e-05 1.3510244745e-05 -8.2278789828e-05 -3.2685143382e-05 
8.2963534883e-06 -0.00034934001715 0.00010761161899 -0.00015219048086 -3.96783337e-05 -7.6146833004e-05 -0.00017198659722 0.00012291550054 4.7774168373e-05 
-9.4388543868e-05 -9.7748277493e-05 0.00021413599483 -0.00014482466354 -5.867410721e-05 -6.0792337498e-05 0.00010371048848 -1.0511429285e-05 4.7414742549e-05 
2.8994887465e-05 -7.754669294e-07 1.6371781277e-05 -9.8804393546e-05 5.5199290441e-05 5.8347486544e-05 -2.0957951005e-05 -2.260252181e-05 6.2860556185e-05 
-7.6537698898e-05 2.5213013312e-05 8.2165491699e-05 -0.00019451393047 -0.00011355080654 -2.9147885236e-05 -0.00028494111301 -3.8270319308e-05 -2.1270842871e-06 
-2.7262026662e-05 -5.0818021993e-05 0.00010286165596 -0.00012909068872 -0.00020072731867 0.00020444418261 -9.3428869772e-05 -0.0001100150451 -1.8166351621e-05 
-0.00020666900824 4.3640666087e-05 2.8169130857e-06 -6.8960627074e-05 4.976054334e-05 7.7548099534e-05 -0.00012323988224 4.9779880058e-05 1.2624831755e-05 
-0.00013367700945 -8.9045527384e-06 3.1259435053e-05 -0.00012586614603 4.2980801886e-05 0.00011378591341 -0.00014913753518 -2.7420431006e-05 -6.9832414088e-05 
1.0026286079e-05 -2.8434440212e-05 1.5579517816e-06 -0.00017210332893 6.5318752777e-05 -3.6335668938e-05 5.0664330238e-05 -0.0001298202853 -0.00016023319981 
-9.8354630594e-05 3.9390001882e-06 9.118082644e-05 -0.00018122737723 -0.00011416076853 9.4605114924e-05 1.5221954483e-05 -4.6432080603e-05 1.9759785132e-05 
4.360429044e-05 4.2449021186e-05 0.00014762624776 0.00015593308031 5.7708807653e-05 7.7095464331e-05 -0.00022113967487 -5.4876048997e-05 5.7748178032e-05 
-0.00026848715589 -0.00012035322248 -8.0804769096e-05 -0.00022764349918 -0.00016209681453 0.00011445818655 -5.3008741477e-05 -6.3063017582e-05 7.1104637966e-05 
-5.976650834e-05 -0.00016811935638 -6.7997404804e-05 -5.3145985004e-05 -8.6618363946e-05 -0.00015050496161 0.00026164054293 -0.00017204332682 -0.00012041642145 
0.00012003351107 -0.00014312891195 -2.2915900776e-05 0.00012105274617 -0.00012896852071 0.0001517944965 0.00012051992573 -0.00017974751083 -1.8342002945e-05 
-0.00021577520088 7.6068282333e-05 -4.6189118739e-05 -8.8386048314e-05 2.3688617787e-05 -2.9211796434e-05 -0.00010677369419 -8.4000742128e-06 -4.8261864648e-05 
2.9494678131e-05 -0.00030632659891 -0.00019085194627 2.314552438e-05 3.0129256226e-05 0.00010809468675 -4.6166160462e-05 -0.00025502398226 -0.00024733212865 
-6.789115947e-06 5.5036205917e-05 -3.8955637119e-05 0.00015359424637 -5.169361522e-05 0.00016942416397 6.3717961086e-05 -5.2215788448e-06 -0.00016457526423 
-0.00013417500495 3.8822490323e-05 2.2071522428e-05 -0.00033024555673 7.0199741482e-05 5.1483530511e-05 -2.2808547983e-05 -4.6059755688e-05 -0.00015790147962 
-0.00025265881083 0.00013528551909 0.00011100854576 -3.2958533359e-05 -0.00025872549485 -7.9556579545e-05 1.2159567134e-05 -6.0160560313e-05 -0.00021129472853 
-1.0486932679e-05 -0.00039970464986 -0.00017857805498 -3.1864857247e-05 1.9273458e-05 -0.00021234788966 3.1924662957e-05 -2.4241680442e-05 -0.00014920208738 
-0.00010083304492 -0.00023216456418 0.00010537683989 -2.7153625566e-05 -1.2831620006e-05 -0.00018798014755 -0.00016253348557 1.2997416821e-05 1.1714418663e-05 
9.6161341824e-05 -7.9116096253e-05 8.1945960408e-05 -9.6398198914e-05 -0.00034605319637 6.0564770724e-05 -0.0001597470622 -9.1370650789e-05 -9.6560927016e-06 
1.1185899271e-05 -4.7193086015e-06 -1.8119021297e-05 7.248559501e-05 -0.00015697496591 -0.00016772336583 -6.376608206e-05 -8.3569342908e-05 -1.5535555664e-05 
-2.6488439058e-05 4.2416139608e-05 -3.8750202644e-05 -2.6133760095e-05 0.0001226347741 -4.8472142289e-06 9.2922901754e-06 -0.00025075238494 -0.00021303664845 
6.7675832296e-05 -0.00035292652878 -0.0001818072439 9.5236721518e-05 1.284140798e-05 -0.00015308011465 -0.0002208005596 -1.0060895309e-05 -5.6595959158e-05 
-0.00015733878443 -0.00013105745651 6.0029156277e-05 -0.00012814893396 3.2553886494e-05 3.477647039e-05 -9.845412607e-05 -3.3767189249e-05 -0.00014262444688 
-1.4554830882e-05 -4.5319401143e-05 -4.235592982e-05 5.8041267676e-05 -6.9023053272e-05 -0.0001618246643 -0.00029515197406 -0.00023203037085 0.00040039176454 
-0.00044545424021 -0.00016366987375 4.997567977e-05 9.8060852938e-05 -0.00022984069788 -0.00023437703622 -0.00010901388154 9.3366331286e-05 -5.5815962367e-05 
-0.00011374726121 -8.2238622875e-05 -2.3191756906e-05 2.5239713233e-05 -8.9400081151e-06 -2.7848629354e-05 -0.00032841978785 -0.00014155141624 -0.00034954512313 
-5.8420268337e-05 -0.00022247414747 1.9555085621e-05 -1.2512397461e-07 5.606787894e-05 2.0724193836e-05 3.2176947497e-05 0.0001034407465 -0.00013356401483 
3.8813154456e-05 1.5915923354e-05 1.1765114906e-05 -3.6943916485e-06 2.0278100585e-05 0.00018639178091 -3.9273196548e-05 -5.2650649437e-05 -2.746447712e-05 
-1.9849004478e-05 3.7609684727e-05 -0.0001319390271 4.7515963221e-05 3.5263681119e-05 2.1487554413e-06 -0.00021707840214 6.4358859357e-05 -4.0104117668e-05 
-6.8555179155e-07 8.1321892545e-06 -1.7899483551e-05 3.7083096366e-05 4.7174290437e-05 -5.9171277273e-05 -3.7866763471e-05 -4.2028703619e-05 -1.0390706091e-05 
0.00012219170692 1.0227982989e-05 5.2142178642e-05 -4.4650146946e-05 -1.0474281228e-05 2.0878258947e-05 -6.9026382777e-05 -3.398099836e-05 -9.4091477518e-05 
-4.8262657499e-05 -0.00011627488097 1.7536597808e-05 -3.5086686232e-05 1.3914334289e-05 -3.6193015579e-05 -0.00022667196477 -2.0869202236e-05 -5.3038783065e-05 
-7.8096004936e-05 0.00015898067323 0.0001079011335 -0.00011326027938 5.2105341129e-05 -3.0724969535e-06 -0.00011543973445 -7.1957969057e-05 -3.1033132773e-05 
-0.00013215875785 2.9463127681e-06 2.2777524499e-05 -0.00016314676894 -5.6988798614e-08 4.6462008415e-05 5.30621919e-05 -2.6747400253e-05 1.1574546548e-05 
-4.736929134e-05 -1.5839844267e-06 -9.6400937944e-05 -0.00016594321985 -2.8452030153e-05 -2.1279666411e-05 0.00012337104333 -0.00026746256569 -0.00036230515113 
-0.00012117868067 3.557975848e-06 0.00015043931927 0.00015741484686 -0.00013848129851 -4.9391455466e-05 -0.00015300922644 -5.1479318798e-06 2.581804333e-05 
-0.0001117558015 6.8090331224e-05 -1.0233107266e-05 -8.7492136443e-05 4.7422293734e-05 0.00010544559745 -0.00012036342766 -5.6875682429e-05 3.3962954047e-05 
-4.3067185004e-06 -7.0297680244e-05 -8.1646532702e-07 -0.00010299231227 -2.3088340001e-05 7.6064850477e-05 -2.1199645981e-05 -5.5421470332e-05 -3.3761912843e-06 
-8.5492876971e-05 2.8426199354e-05 -6.8586262308e-06 -0.00015450775895 7.5118639691e-05 0.00020083518028 -0.00027634126777 9.0506127491e-05 -0.00010264483588 
-0.0001205827579 -2.2862634322e-06 2.1191158032e-05 -0.0084316744903 0.00065569115335 -6.9700458116e-08 -0.00012063896715 3.929295681e-05 1.7510210277e-06 
0.00025643821373 -0.00014064643077 0.00014382477552 -0.00020031763227 -7.9901985451e-06 -2.2680244919e-05 -9.8151696166e-05 -7.0628003306e-05 4.2688180709e-05 
-8.5969207628e-05 5.0186801694e-05 -0.00011866484808 -0.00010662001684 -5.3524226066e-06 1.746307403e-05 -0.00015159886199 -5.9920579613e-05 -5.8542295662e-05 
-2.516653503e-05 -0.00023649135467 2.0917260785e-06 -2.725181922e-06 -0.000128765215 1.1511637252e-05 4.4180124101e-05 5.115855918e-05 8.2871193717e-05 
-6.8653482242e-05 0.00016041732928 4.8787908226e-05 2.4849812601e-05 -3.6863501425e-05 -1.651865397e-05 0.00026070249885 -0.00023844408543 -0.00013318885804 
1.6408063503e-05 -1.6320180711e-05 1.5867405547e-05 2.2974775009e-05 -6.3346731209e-06 0.00014305744542 -0.0043550107437 -0.0024653609225 -0.015137452405 
-6.3608526976e-05 -8.3937091042e-05 -0.00019554438821 -8.8785493988e-05 -3.4170690348e-05 -6.9588456094e-05 8.0302053702e-05 -3.1090690892e-05 -0.00020929973893 
3.9734069356e-06 -8.0853195678e-05 -7.968888883e-05 -0.00027464320591 -8.8630203223e-05 4.9449054724e-05 2.3433700342e-05 -4.4622174461e-05 0.0001078206636 
0.00012316113411 -2.3673564114e-05 -0.00021086597823 4.2535514834e-05 -8.3920728665e-05 -7.1133717969e-05 -7.5136049091e-05 -5.6982435773e-05 0.00021851421818 
-4.8995601213e-05 -0.00011136974744 -0.00011150805677 -0.00021607724506 -0.00059748160446 -0.00052240935513 -8.0898929636e-05 -8.9882650357e-06 0.00014787000676 
3.9601729147e-05 -0.00010110748042 -1.416111895e-05 -0.00012489826993 -3.3334715487e-05 1.5556928713e-05 -0.00025427831942 -0.00024327691046 -0.00035511366999 
2.7825384794e-06 4.0413919012e-05 -0.00019649985022 8.6351630785e-05 -0.00012211670419 0.00019818079356 0.00010262080275 0.000124046418 0.00014682206159 
7.3202271966e-05 -0.00017351101817 -0.00021250138607 7.3473486253e-06 -0.00014701446021 0.00011644078747 -9.919479881e-05 -0.00016111908571 -0.00016345903585 
-0.00019074836124 -0.0005730642264 -0.00021672555678 -0.0001869261572 0.00021664085061 -4.9575835897e-05 3.0874989366e-05 1.2792296225e-05 -1.8301404829e-05 
1.0137757398e-05 -2.1553184279e-05 -6.4851946951e-05 -7.4215771634e-05 -5.515087669e-06 -2.0066116258e-05 1.8307969006e-05 -0.00024599368705 0.00015533500211 
2.8867728124e-05 -0.00016031930349 -5.6994954462e-05 -1.6313238736e-05 1.2221776605e-06 6.3599585596e-06 1.921826712e-05 2.1165744469e-05 7.0164492928e-05 
-7.8634930085e-06 6.1242057228e-05 -0.00018081068146 -0.00010840589638 1.0191735111e-06 9.2101199323e-06 -0.00032207062122 0.00016252031545 -0.00015788961247 
-0.00010157909492 -1.9201195241e-05 2.8760143837e-05 -2.3321909114e-05 7.7558810199e-05 3.2160683007e-05 -3.8661992326e-05 -6.2011408598e-06 -3.0738283992e-05 
-4.1407455712e-05 -7.4629532025e-05 8.3616865229e-05 -0.00061799765894 7.3975389818e-12 0.00080473983806 -0.00017389586295 5.4133093672e-05 5.4886753389e-05 
-4.9772077736e-05 -5.6274427146e-05 -6.646204738e-05 -6.6782177371e-05 0.00016118377014 -7.6275965404e-05 -7.0158349325e-05 7.8488020269e-06 5.7747368554e-05 
-0.00014007957712 1.8005689637e-05 -7.6149160948e-05 0.00012489701035 -0.0002047482505 0.00013502063622 8.2736317536e-05 3.5079078443e-05 5.3993988449e-05 
-3.2790865757e-05 -9.4042397136e-05 -4.7859206075e-05 -1.7997910275e-05 1.5418868201e-05 0.0001460861743 -2.8878041156e-05 3.4220817798e-05 6.6588857743e-05 
-0.00028578398813 -3.5127797532e-05 6.54919134e-05 -0.00016260878167 -2.5107924434e-05 3.144275794e-05 -0.00017482195201 1.453666555e-05 -1.9419773375e-05 
-0.00015986790723 -1.440863909e-05 3.8534955887e-05 -2.0348032723e-05 -3.0547041755e-05 -0.00027399790519 2.8048170555e-05 -0.00015681006644 3.2527909762e-06 
0.00010520208179 -4.6857067359e-05 -3.2806414866e-05 3.5072209731e-05 -3.0170178119e-07 8.6574630756e-05 0.00013106831089 4.7577715547e-05 0.00030448159076 
6.3499377001e-06 -5.1544724523e-05 4.1555019464e-05 -0.00017194513241 -4.6898683063e-05 -7.2372662372e-05 -0.00012376939077 -5.2901327417e-05 3.1614458511e-05 
-8.1901699849e-05 -3.897870796e-05 2.5465630378e-05 -0.00018059907112 -4.6955455238e-05 -2.3619421436e-05 0.00014750773376 -0.00022364468834 -0.00011464106401 
-8.7633479856e-05 -1.0559914914e-06 3.4781317504e-05 2.7712640003e-05 -0.00012994657745 0.00023772985817 -0.00011893552706 -1.9205644542e-05 -2.9126425104e-05 
-3.999334354e-05 -1.3785184902e-05 2.3131693573e-05 -0.00015213507274 2.0126655472e-05 7.6791051876e-05 -0.00010228455292 -0.00013291006614 5.4565100109e-05 
3.7653800486e-05 -8.4172090872e-05 -7.9858066905e-05 9.5100927846e-05 -0.00025747595274 -9.7451059532e-05 -1.6844783387e-05 -5.8159627963e-05 7.3886681431e-05 
-0.00018288977065 2.3949092171e-06 7.6111367443e-05 -0.00023563749712 4.6829320551e-05 -2.2397718602e-06 2.0042091269e-05 -1.4348970112e-06 8.0801245604e-05 
5.9154150393e-07 -9.1022783004e-05 -0.00017280084602 -1.6741410752e-05 -0.00010898119899 0.00012758653517 -0.00017909999059 -8.315236988e-05 -4.4717948004e-06 
-0.0001401084936 -0.00025995386052 7.7249169964e-06 -0.00014111916846 0.00010239098344 -0.00018526755477 4.9554247347e-05 -0.00017565409463 -0.00018036884209 
6.0992164475e-05 -0.00014986254709 -4.6201320868e-05 4.2822288449e-05 -0.00016673624765 -0.00037324909043 -0.00013252799991 -4.8374482164e-05 0.00016735348896 
8.9242468172e-05 4.8574684675e-05 9.7525054086e-05 -0.00032300416613 -1.5452160843e-05 5.2723365095e-05 -1.7489803778e-05 -1.3139379316e-05 3.3002943071e-05 
7.8370936928e-05 -9.1254922076e-06 6.5849112047e-05 6.2788400819e-05 2.700143141e-05 -3.1134726102e-05 -0.00028906338541 2.4315759581e-05 -3.3843637089e-05 
0.00014831791042 -0.00019384635354 -0.00010746474171 -0.00010016694129 7.0989810722e-06 6.2991678123e-05 -3.553934291e-05 -0.0001866808252 -0.00020925629018 
1.6787949666e-05 -9.1015131107e-05 -5.4651376366e-05 0.00015572096283 -0.00013427720046 5.1931001713e-05 -0.00016830964277 -3.9021032655e-05 0.00025405912729 
-0.00016583771843 -9.5022498391e-05 -0.0002241128187 5.8494994115e-05 0.0001390243614 -5.8693754714e-05 -1.8663180766e-05 1.4904720538e-05 0.00018146813009 
0.0002066365638 -0.00020397397607 -1.7636592406e-05 5.2836163956e-05 -0.00014330210994 0.00016647698828 -0.00038788619242 -4.2737339298e-05 -0.00022989313698 
-0.00016593247224 -6.0825393056e-05 0.00011363595828 -0.00011624869253 0.0001059162903 -2.3619953161e-05 -0.00028371951537 -0.00015635394659 -0.00032429146441 
1.0157509953e-05 -3.6039338128e-05 -0.00018740921743 -0.00011200199821 0.00018460840481 -9.7839077526e-05 -1.5951782819e-05 -3.9915863686e-06 -1.089771852e-05 
-2.3380689131e-05 -3.1089881735e-06 0.00017512240516 -0.00019931591374 0.00010165433437 -3.2476395015e-05 0.00012699919002 3.1389452108e-05 0.00039856073921 
7.6548035989e-05 7.7186209322e-06 -0.00012524892603 -2.1750474893e-05 5.6905897745e-05 -2.8641996906e-06 -8.94392853e-06 1.9009648329e-05 -1.1007335917e-05 
2.7968368598e-05 2.7502567423e-05 -2.1477425866e-05 -1.6251937639e-05 -2.2305185857e-05 -1.1188339729e-05 -0.00016357325383 -1.2721908754e-05 -6.942978534e-05 
2.6504451192e-05 -7.7477318224e-06 0.00014103688852 0.00013964012988 -1.6457775597e-05 0.00010203874505 -0.00023394249761 -4.0079267445e-05 0.00031761013089 
-5.4613008898e-05 -4.4943651043e-05 5.9477469989e-05 4.6071010265e-05 5.2565722787e-05 1.6190496482e-05 -0.00011069566463 -3.9743919931e-05 1.4424889123e-05 
-0.00014488864039 -2.9563515114e-06 -2.7000811836e-05 3.5078274689e-05 -8.340098352e-06 -3.4061420303e-05 -0.00011898598654 2.4014469988e-12 -0.00011503410503 
7.7433478041e-06 2.1202240162e-05 -3.7232937855e-05 -7.9870600081e-05 -3.6265899658e-07 -1.2336551214e-05 1.0639873803e-05 -1.1313327849e-05 0.00010799943025 
5.7075373208e-05 -1.0307542535e-05 -0.00022967855197 -2.2125905846e-05 -4.9809753925e-05 -0.00012240151946 -4.38476476e-07 1.0289517253e-05 -1.0211973828e-05 
8.1151733471e-05 -6.0694461566e-06 -3.3192211275e-05 -4.1384469435e-05 -0.00020713787287 1.5382965795e-05 -0.00016184238291 -5.7900527509e-05 7.5454072998e-05 
-5.5670940461e-05 -1.456162186e-05 2.1272985614e-05 -6.9315683281e-05 -1.1319304745e-05 8.7829703539e-05 6.1473246025e-05 3.3395059774e-05 0.0001117743143 
-9.6563295484e-05 2.4462123015e-05 7.9428279795e-05 -0.00025838529802 -4.9193898556e-05 4.0367362068e-06 1.4168640106e-05 -5.0057881764e-06 1.9356543215e-05 
-0.00015895879959 4.2549710055e-05 -0.00013931398004 -9.6863341439e-05 3.0432227951e-05 -6.1814351199e-05 -5.5402743661e-05 -2.7079560439e-05 -7.4153854104e-05 
-0.00017902539468 1.7400605799e-05 -1.6478197738e-05 -8.4316963246e-05 3.3526490318e-06 4.7046589381e-05 -0.00016818474148 -6.9787784724e-05 9.6163147886e-05 
-5.6694529028e-05 1.8735433805e-05 2.7814575176e-05 -0.00016022183013 -0.00015797444003 0.00015477614306 -0.0095700896826 -0.004973590862 -0.011488062074 
-0.00016560299013 -2.6799903758e-06 -1.6877205717e-05 6.2481244942e-05 -2.1888529345e-05 -4.8542640213e-05 -0.00027982348753 -7.4468444182e-06 0.00014155063919 
-0.00028773854948 5.659690147e-05 9.6579063513e-05 -6.9118315654e-05 0.00011939112681 -0.00015428491196 -4.900615602e-05 -4.1534847959e-05 -5.2412484476e-05 
-0.0001233098607 3.8751492647e-05 8.8066569872e-05 -6.0069524842e-05 -0.00016298263018 4.1729672413e-05 -0.00026610094756 9.876365223e-05 2.3417408722e-06 
-0.00021850985714 5.424744989e-05 0.00014734493735 -4.6480241615e-05 1.3631625227e-05 -2.3410278649e-05 -1.0670359481e-05 5.1536416368e-06 -1.9197396868e-05 
-0.00016797115899 -0.00029030486949 -3.0042269803e-06 -9.20105127e-05 -5.6972005458e-05 5.3019945803e-05 -1.5141051571e-05 -0.00017995135683 -1.9010977694e-05 
-5.2649121614e-05 -5.4096999261e-06 7.7753805355e-05 -0.00014430113059 -8.560064535e-05 1.7703152072e-05 -2.6598597214e-05 5.9554579445e-05 -3.3983441934e-05 
8.7504996029e-05 -0.00017491676063 -0.00030777610637 -0.0002250301831 -0.00022083007085 -0.00027359692366 -0.00013923119913 -0.00012021578281 2.6290999418e-05 
-7.9081837129e-06 3.5043337577e-05 -5.9588624964e-05 -0.00011126941305 1.8831008579e-12 4.9845776731e-05 5.7326496007e-05 -5.1759234218e-05 -0.00020005593094 
-2.2627981161e-05 0.00020401853361 -2.77951804e-05 -0.00035097982964 -0.00013904478336 9.6793063223e-05 2.1048455368e-05 1.1935530705e-05 -0.00014452343911 
-8.1711910043e-05 -5.7548825236e-05 0.00017550897402 -1.3414234488e-05 -6.4917028936e-05 -2.2100525997e-06 -0.00011691141683 -7.4308557479e-06 -6.162250841e-05 
0.00021868915437 3.7436351816e-05 -9.0374113545e-05 3.9100625427e-05 0.00012246027429 -5.364858577e-05 -0.00011438618986 -1.6470158266e-05 -6.7643653758e-05 