# vtk DataFile Version 4.1
vtk output
ASCII
DATASET UNSTRUCTURED_GRID
POINTS 1274 float
0.566843 0.423072 0.0379586 0.517964 0.533525 0.104552 0.545566 0.457887 0.268459 
0.554883 0.441576 0.106403 0.472163 0.638199 0.0323176 0.476445 0.642203 0.132427 
0.53131 0.502066 0.213813 0.510982 0.5414 0.26858 0.434392 0.746832 0.0743319 
0.446606 0.695688 0.163509 0.50335 0.562274 0.209637 0.482017 0.619331 0.26575 
0.406699 0.796271 0.0319716 0.387256 0.862559 0.0493363 0.428947 0.76276 0.151671 
0.442811 0.727815 0.22562 0.383666 0.864479 0.263353 0.354601 0.940511 0.0387226 
0.442562 0.81154 0.0969224 0.49234 0.770867 0.109826 0.379225 0.882089 0.124916 
0.470243 0.795734 0.221151 0.355258 0.930148 0.262315 0.404892 0.801075 0.20755 
0.322472 1.00261 0.0530419 0.375615 0.872117 0.195473 0.330885 1.0007 0.260297 
0.291313 1.08094 0.0336669 0.408623 0.992237 0.0929238 0.346422 0.960754 0.113181 
0.344082 1.13259 0.0393317 0.350527 0.929632 0.1909 0.329003 0.990135 0.177488 
0.394217 1.13655 0.092528 0.426398 1.03626 0.037895 0.319224 1.0424 0.119411 
0.470285 1.03078 0.0998119 0.304741 1.04356 0.207247 0.386525 0.978744 0.209505 
0.26528 1.14298 0.0332148 0.357495 1.05962 0.03774 0.374225 1.03871 0.184788 
0.286858 1.09675 0.169568 0.317839 1.07522 0.26484 0.284541 1.11555 0.0973324 
0.415269 1.10779 0.0356619 0.277276 1.13132 0.235924 0.258289 1.15328 0.150199 
0.585418 0.357606 0.0303118 0.704247 0.0704993 0.121909 0.660823 0.200192 0.112287 
0.691835 0.117016 0.182125 0.655123 0.197009 0.265145 0.685609 0.132441 0.262615 
0.594685 0.338913 0.203119 0.565991 0.418703 0.211939 0.669167 0.169164 0.0367645 
0.619455 0.28932 0.153991 0.53197 0.50756 0.0378796 0.674607 0.311604 0.0540119 
0.606114 0.331418 0.0944447 0.605355 0.312667 0.268468 0.612314 0.442319 0.262777 
0.581194 0.38185 0.153129 0.599056 0.522542 0.0391352 0.49357 0.594504 0.0795122 
0.584385 0.541658 0.10176 0.542807 0.615256 0.185557 0.633652 0.3997 0.109571 
0.5726 0.516797 0.2667 0.495082 0.578602 0.150233 0.463269 0.660225 0.212931 
0.544433 0.543847 0.164025 0.632552 0.416846 0.187441 0.553556 0.633883 0.096984 
0.605005 0.6333 0.145857 0.510161 0.694678 0.0415187 0.558395 0.580516 0.0405401 
0.535122 0.676477 0.149937 0.479926 0.707861 0.112356 0.414273 0.773407 0.269731 
0.553952 0.633376 0.260783 0.593635 0.479439 0.208155 0.616325 0.61227 0.217456 
0.52333 0.684502 0.220475 0.569437 0.559484 0.21869 0.499149 0.76864 0.0384304 
0.564783 0.734594 0.0319529 0.569376 0.659569 0.0327758 0.501132 0.73696 0.172395 
0.540823 0.715452 0.098716 0.510133 0.748396 0.260659 0.480811 0.684544 0.26898 
0.46358 0.83574 0.0373669 0.420367 0.967373 0.03259 0.508596 0.88983 0.0331326 
0.451578 0.878782 0.0993558 0.467157 0.830304 0.157846 0.514402 0.837356 0.0980268 
0.522299 0.821565 0.265546 0.45845 0.85666 0.261477 0.577043 0.857463 0.268846 
0.519714 0.836138 0.201979 0.444198 0.902572 0.0323965 0.40831 0.928544 0.0812616 
0.514048 0.905354 0.0944743 0.414905 0.94751 0.150635 0.442663 0.891189 0.195499 
0.489698 0.940416 0.264236 0.42461 0.920058 0.267422 0.525683 0.88574 0.242178 
0.517071 1.02013 0.0385429 0.521103 0.966315 0.0978507 0.483739 0.937148 0.137412 
0.408733 0.981361 0.269159 0.570807 1.06477 0.172635 0.533062 0.992508 0.267885 
0.454898 0.971656 0.210018 0.464459 1.01754 0.264192 0.494232 0.996048 0.157342 
0.39395 1.04884 0.254028 0.572294 1.06971 0.0365334 0.546477 1.02808 0.117785 
0.480508 1.08285 0.0341942 0.39399 1.05816 0.0995839 0.432355 1.01779 0.160585 
0.38186 1.12654 0.260952 0.48459 1.0375 0.203764 0.442704 1.0928 0.219171 
0.517566 1.06258 0.266119 0.531233 1.13307 0.0362711 0.363651 1.10399 0.140333 
0.507335 1.12395 0.223781 0.346243 1.09557 0.205389 0.510962 1.07955 0.166374 
0.427716 1.08477 0.152814 0.745266 -0.0294055 0.147967 0.610143 0.301039 0.0315355 
0.776071 -0.115496 0.0434937 0.778481 -0.0270985 0.211909 0.712814 0.0647304 0.259118 
0.752044 -0.098805 0.200978 0.73325 0.00266859 0.0861087 0.660661 0.240958 0.0364196 
0.626283 0.262688 0.0912703 0.582774 0.374401 0.265829 0.657947 0.267085 0.260291 
0.727007 0.0248908 0.191133 0.752044 0.117687 0.22138 0.683032 0.266506 0.128629 
0.640532 0.396293 0.0375114 0.73494 0.21175 0.0943418 0.600175 0.483675 0.140572 
0.679245 0.332322 0.151678 0.657479 0.345682 0.218244 0.644211 0.221279 0.199021 
0.668195 0.485943 0.261301 0.651331 0.584535 0.0390478 0.622825 0.460492 0.0712366 
0.636564 0.584683 0.108125 0.612638 0.55258 0.165535 0.655867 0.580574 0.268224 
0.651278 0.496598 0.185939 0.700181 0.461434 0.208705 0.628272 0.532684 0.235327 
0.662709 0.610355 0.158137 0.646859 0.519988 0.101872 0.695976 0.651525 0.0394049 
0.620465 0.636468 0.07538 0.586893 0.678221 0.194942 0.577028 0.709259 0.261827 
0.655798 0.653428 0.265239 0.560654 0.749695 0.207157 0.680123 0.55835 0.19784 
0.653814 0.67725 0.203876 0.630637 0.687752 0.0347574 0.605661 0.69328 0.108036 
0.624434 0.773441 0.040285 0.532517 0.829761 0.0315443 0.588209 0.788197 0.260436 
0.641649 0.839247 0.265486 0.573645 0.726078 0.150549 0.532029 0.797759 0.153987 
0.5829 0.877225 0.0430991 0.5626 0.780387 0.0949877 0.525095 0.943515 0.197843 
0.513586 0.884171 0.157702 0.576814 0.862386 0.133201 0.564541 0.929077 0.269176 
0.595808 0.807189 0.184211 0.485387 0.954268 0.0443586 0.586703 1.002 0.0337898 
0.618834 0.94125 0.0351806 0.55081 0.94056 0.0339687 0.599169 0.985592 0.0963676 
0.574455 0.925214 0.0959351 0.580734 0.874204 0.204962 0.545962 1.01426 0.206042 
0.586698 1.12356 0.0855404 0.629971 1.10547 0.0322884 0.608639 1.06636 0.121781 
0.561899 0.96561 0.143136 0.640469 0.961678 0.268674 0.596909 1.11966 0.155865 
0.577215 1.09385 0.236526 0.605154 1.00169 0.175102 0.596937 0.94306 0.213533 
0.599831 1.02002 0.258241 0.693709 1.10473 0.0516047 0.675177 1.08066 0.114384 
0.512644 1.09609 0.0986166 0.702209 1.10371 0.226259 0.644239 1.07154 0.186516 
0.804446 1.01674 0.211826 0.767411 -0.200507 0.00999943 0.801795 -0.216958 0.0819633 
0.752972 -0.462526 0.161156 0.777373 -0.219861 0.278505 0.783111 -0.304773 0.200701 
0.702258 0.0962756 0.0387449 0.776439 0.0654614 0.0503232 0.778616 -0.139382 0.124485 
0.821839 -0.0349529 0.267238 0.734615 0.177044 0.162471 0.783778 -0.0915038 0.267434 
0.783223 0.0655018 0.266645 0.763981 0.0356524 0.134053 0.727387 0.265831 0.0353323 
0.729071 0.304371 0.100196 0.743209 0.110383 0.094384 0.74592 0.253982 0.156902 
0.704486 0.239296 0.210736 0.780283 -0.0694579 0.103106 0.782663 0.184553 0.214187 
0.793851 0.058711 0.196026 0.663827 0.510287 0.0352064 0.711582 0.375461 0.0349309 
0.698988 0.380188 0.102163 0.661681 0.453211 0.138764 0.696962 0.405235 0.164025 
0.713278 0.541499 0.262133 0.695494 0.355207 0.269092 0.727876 0.366567 0.212033 
0.674227 0.411468 0.243346 0.749177 0.344507 0.150598 0.71547 0.300844 0.202115 
0.701973 0.562252 0.10393 0.706807 0.478323 0.0908809 0.757842 0.358377 0.0793016 
0.74986 0.418831 0.123081 0.7582 0.429382 0.195963 0.714616 0.683458 0.268698 
0.704942 0.513975 0.15168 0.674213 0.657079 0.111574 0.689897 0.730091 0.0470736 
0.747097 0.606793 0.0845326 0.756419 0.526787 0.0901874 0.731936 0.599993 0.161289 
0.685805 0.623602 0.213376 0.755088 0.526426 0.195652 0.648372 0.72184 0.259136 
0.624437 0.738575 0.190259 0.654393 0.844272 0.0372507 0.70627 0.833204 0.0802969 
0.664299 0.723405 0.116669 0.674098 0.780781 0.0939456 0.620891 0.766063 0.126442 
0.641152 0.828066 0.135213 0.661357 0.838411 0.196914 0.713577 0.690396 0.161324 
0.653973 0.782566 0.232345 0.687821 0.730186 0.207553 0.673582 0.776079 0.161965 
0.665407 0.986655 0.0301001 0.686555 0.912759 0.038369 0.729407 0.973487 0.0392923 
0.608837 0.827464 0.0839038 0.637008 0.887668 0.0953423 0.711114 0.896965 0.109751 
0.620607 0.902203 0.259733 0.633393 0.889289 0.164565 0.694849 0.890506 0.176979 
0.659211 0.956394 0.0906949 0.661624 1.0128 0.135144 0.73221 1.04638 0.0370858 
0.640379 1.03791 0.0661649 0.62042 0.94745 0.143702 0.660908 0.926346 0.215827 
0.777893 0.998071 0.0857212 0.667151 0.998429 0.21379 0.686752 0.94959 0.153124 
0.647952 1.08656 0.263607 0.79964 1.06718 0.0337536 0.829587 1.04224 0.111681 
0.730902 1.04242 0.106522 0.726515 1.06504 0.173385 0.709203 1.04474 0.262216 
0.756966 -0.337558 0.0120166 0.794624 -0.377623 0.0885442 0.735768 -0.397424 0.124449 
0.818257 -0.472461 0.151134 0.766672 -0.426673 0.267264 0.755507 -0.342178 0.263092 
0.755742 -0.0399425 0.0353855 0.831682 -0.265241 0.0204445 0.834979 -0.0574601 0.029527 
0.827411 -0.321019 0.0860078 0.828721 -0.264616 0.15256 0.832716 -0.296727 0.267456 
0.822922 -0.186519 0.169487 0.856746 -0.105604 0.263649 0.826575 -0.229892 0.224503 
0.748487 0.155466 0.0364064 0.833963 0.0281802 0.0314128 0.795872 -0.00472811 0.0894891 
0.852027 -0.139808 0.108454 0.78405 0.159873 0.0955651 0.82785 0.0485351 0.134684 
0.782272 0.108 0.144111 0.853006 0.0603284 0.263464 0.83221 -0.0981949 0.190014 
0.728984 0.194828 0.260457 0.788652 0.26615 0.0965433 0.784074 0.220571 0.0378141 
0.846121 0.175859 0.100397 0.800229 0.205115 0.14332 0.834798 0.124658 0.1833 
0.722008 0.294997 0.266582 0.832242 0.301694 0.263423 0.811845 0.135444 0.260562 
0.788683 0.241968 0.262927 0.772778 0.342644 0.26302 0.749558 0.438878 0.0395171 
0.729092 0.523945 0.0315348 0.784186 0.297695 0.205525 0.813059 0.333327 0.120228 
0.723765 0.450292 0.267401 0.794308 0.365709 0.202968 0.778975 0.411377 0.266623 
0.721649 0.586438 0.0313817 0.804038 0.566303 0.11359 0.795142 0.501635 0.0384512 
0.764099 0.63351 0.0312173 0.794438 0.454404 0.0910525 0.779176 0.494567 0.258473 
0.742964 0.655874 0.214435 0.763754 0.482261 0.14241 0.805394 0.568498 0.180569 
0.716079 0.618353 0.26954 0.743302 0.787994 0.0399847 0.755413 0.698677 0.034623 
0.742007 0.668597 0.0995319 0.727764 0.733144 0.107658 0.794165 0.643961 0.16565 
0.783858 0.698561 0.260065 0.748446 0.588532 0.227859 0.710472 0.750755 0.265521 
0.749186 0.737713 0.212247 0.703026 0.815825 0.268692 0.753222 0.871714 0.0402584 
[...]
POINT_DATA 1274
FIELD FieldData 10
VELOCITY 3 1274 double
0.25125418265 -0.61054530376 0.00021465802866 0.20473610492 -0.50711999637 0.10141750154 0.30614904843 -0.72662906212 -0.0010205922668 
0.29972475916 -0.72730608497 0.039972838128 0.1871781749 -0.45948043231 0.00023880710888 0.25384507514 -0.61682133095 -0.13138664671 
0.25677539825 -0.62360078204 0.02779482184 0.29722890717 -0.72184166424 -0.0077352405493 0.20311844644 -0.49422357189 -0.060633588151 
0.24699782363 -0.60486766695 -0.093932555939 0.24822237633 -0.626761416 0.036213101919 0.22803495214 -0.55537570332 -0.0010495867334 
0.18568041063 -0.45093815863 -2.6460863454e-05 0.1709075894 -0.42044391816 -0.076432069659 0.25202916181 -0.60022018464 -0.084590386478 
0.2141075835 -0.48906648205 -0.071690522441 0.18649022908 -0.45109153509 0.00070870815077 0.18451562859 -0.45774248067 0.00071393164279 
0.22648003776 -0.5201062481 0.0039241856744 0.21342899247 -0.6062811558 -0.0024638357539 0.2411559756 -0.58476386447 -0.028000610439 
0.30586282057 -0.56234445753 0.0094131085142 0.1616701371 -0.43272212869 -0.12915048545 0.30951212477 -0.71020995597 0.041037247096 
0.19062767495 -0.46386700223 0.022105408203 0.28116457557 -0.6830588866 -0.04047079549 0.16566456152 -0.38668990373 0.0016077571894 
0.19983088007 -0.48450374086 -1.7843292266e-06 0.16258912038 -0.52136244652 -0.029569532122 0.29405189301 -0.71412605809 0.083256639512 
0.24683989023 -0.5007723609 -0.030380446305 0.28580460335 -0.68951087313 -0.14786844635 0.25686948796 -0.63918043162 0.023408157958 
0.3017551819 -0.60595176383 0.057323987254 0.16967047841 -0.59263495295 -0.011041921608 0.24112200507 -0.58173185827 0.089673243036 
0.18962221268 -0.56334173522 -0.013998873411 0.25902757273 -0.62935485635 0.010223686521 0.27433427048 -0.71785775459 -0.03838402326 
0.29267848256 -0.71080497989 0.00010039159485 0.20007664498 -0.50704641459 -0.11304116517 0.26172171319 -0.64506583325 0.0027144877572 
0.23588198226 -0.57426667007 0.067963195064 0.12604274088 -0.55272572712 -0.00039628220146 0.25240846854 -0.5905705098 0.063498555022 
0.1385652074 -0.59405363549 -0.0030929908237 0.2008871959 -0.48784197858 0.019835727155 0.23697632952 -0.57549609323 0.063985825049 
0.22831808086 -0.54314461254 -0.00032632954352 0.60887041173 -1.4715918558 0.3044028118 0.42406868967 -1.0382099966 0.14775394816 
0.51920841516 -1.2316890853 0.087094722247 0.45877913151 -1.1148243408 -0.08425206866 0.11587517943 -1.4185477882 0.091147433514 
0.16374141349 -0.39925282827 0.04783650923 0.22089975854 -0.52241705545 -0.054933871794 0.43626331235 -1.0594966635 0.018930095151 
0.31864292187 -0.77353348673 0.014165588636 0.18346779219 -0.44563219885 -3.6042582735e-05 0.32724890261 -0.95554386253 -0.056947013031 
0.4392088552 -0.65058498974 0.070916930234 0.42245671963 -1.0259663653 -0.00010913123496 0.30039571727 -0.76963810869 -0.0016840769624 
0.20282166867 -0.49915151201 -0.072105120227 0.24797234982 -0.7436360855 0.083428839362 0.24875493022 -0.59465486258 -0.15260904071 
0.23982021743 -0.82350391569 0.14634209394 0.39679118408 -0.74254771191 0.010866088297 0.3341376375 -0.75965331211 -0.012622285705 
0.41215407582 -0.76205228699 0.0010900015219 0.2320367146 -0.56584838599 0.047063920375 0.16325491004 -0.46876422797 0.10537579256 
0.26650228615 -0.50502173691 0.069878744431 0.24554932486 -0.64795676829 0.016055415362 0.27876046649 -0.71232702048 0.10042957145 
0.31157834965 -0.78487779645 0.066343962876 0.28171480075 -0.517957403 -0.045352077051 0.53572900688 -0.57267837965 -0.016197822806 
0.21000642523 -0.71243872845 0.10089382564 0.18969852168 -0.6051799684 -0.10302576071 0.25144700992 -0.61420750816 0.0078776670751 
0.23193392503 -0.57817557053 8.4936221114e-05 0.30609452012 -0.55036362866 0.095503516891 0.31445970287 -0.65847663672 0.15712901104 
0.24047252798 -0.55952466884 0.015485452131 0.33401277276 -0.67515203754 0.083351429968 0.2518111469 -0.54039211615 -0.00039753641498 
0.16594809607 -0.34540964522 -0.00078289725708 0.1642010833 -0.8450871172 0.013924486996 0.2706308502 -0.6507562278 -0.034497764645 
0.16269319359 -0.57362626174 0.03735922347 0.22557183599 -0.64231366973 0.0077143398236 0.084141941772 -0.66429013852 -0.002392079714 
0.21579462534 -0.52193876795 -0.00027915198365 0.23238040951 -0.59303928861 0.0017540554959 0.24787351275 -0.54807950176 -0.0001771091271 
0.2647655423 -0.51121437249 0.031103214494 0.28057637441 -0.61054030211 0.010335284949 0.20537647447 -0.6019881328 0.0001005259183 
0.13097194647 -0.60710725362 -0.0022576367432 0.15692727994 -0.56440269671 -0.0030500270471 0.099258564209 -0.55942068873 -0.0099574891313 
0.2707812234 -0.52577793726 0.0066548852938 0.25407091497 -0.51216856084 -0.00043241163113 0.20773004082 -0.59036431337 -0.05638789348 
0.31817876583 -0.60166343647 0.0068744664931 0.29782291278 -0.59780292901 -0.095194923798 0.25310400798 -0.58467100573 -0.042982280756 
0.25892992096 -0.39736020843 -0.00010510479144 0.30348122324 -0.53829811685 0.031170290696 0.070989986397 -0.54445899861 0.054709273325 
0.21542002279 -0.51418088658 -0.0018622109932 0.40225331968 -0.67910727925 0.017872760522 0.35887856512 -0.54209781069 -0.0081722161919 
0.19507096244 -0.56482940458 -0.0065137992906 0.14009609032 -0.4929004553 -0.0044451609514 0.2032220468 -0.3507631674 0.0018119606196 
0.27557651245 -0.50875419484 -0.090909351718 0.20885929039 -0.57595641295 -0.0036422179463 0.30421890722 -0.51723679157 -0.048436903181 
0.29221948097 -0.5348683746 0.0010810665696 0.1742817071 -0.4620874938 -0.015678248757 0.17327533154 -0.57836048858 0.0046775479393 
0.15883053256 -0.5493564826 -9.4761057499e-05 0.19079135873 -0.50852436886 -0.037338575675 0.27876349981 -0.61118918488 0.027643163294 
0.19460071553 -0.54919741169 0.00036179705661 0.13523487402 -0.57272404628 -0.031575573777 0.20498572352 -0.51390219451 -0.10563494697 
0.20076456177 -0.56682759968 0.0010857648403 0.16342819175 -0.52116994324 -0.00083448040706 0.30450568435 -0.61490297808 0.04989585408 
0.22809954267 -0.56004207057 -0.030178810399 0.25768709592 -0.66001685189 0.025888202375 0.11999984613 -0.55427422336 -0.024750448898 
0.33681923288 -0.62247585811 -0.12515574141 0.56266245586 -1.6825012285 -0.31905214555 0.2305002233 -0.5454927689 0.0024775268374 
0.5766991549 -2.1233756915 -0.19878615923 0.34433110831 -2.3271641106 0.071070473303 0.51339462362 -1.2520781402 -0.11451674787 
0.22371279054 -1.930640469 0.0018130601398 0.48967045578 -1.6646582271 -0.52490227667 0.28136605913 -1.093621472 -0.00093342901175 
0.37470920978 -0.91000812191 -0.0080534165364 0.41892408764 -1.0173871159 -0.0014669662172 0.094569286418 -1.1010414983 -0.096180059834 
0.73834533621 -1.7931244688 0.12488479123 0.69657532096 -2.0078776782 -0.093070758606 0.38251597341 -1.0645282747 0.28374119604 
0.37045525189 -0.73161990813 -0.0044505120889 0.4689151464 -1.3865317508 0.15766257457 0.36244743026 -0.82946669818 0.084207228457 
0.48816348262 -1.0019160186 0.094835050322 0.25479127717 -1.2852299247 0.065845343567 0.31409814893 -0.76280982561 0.23114104837 
0.3958748736 -0.87268217955 0.043949683956 0.1783719119 -1.0081457471 -7.6700384169e-05 0.32128941594 -0.84170725683 0.17835794298 
0.054412305895 -0.74554849368 -0.02312277238 0.28930116747 -0.83909237898 0.12766241236 0.56916106221 -0.70590715418 -0.00024065823685 
0.39587283324 -0.83573515541 0.10741260831 0.34734865727 -0.99649152402 -0.038121050994 0.55208223973 -0.8336663323 0.19799646853 
0.27866258156 -0.93385324469 -0.03678178819 0.26354124379 -0.75095550208 0.041748332873 0.16271661662 -0.76924819193 -0.015103171259 
0.30579170974 -0.96453792109 0.050871914309 0.21927055257 -0.75409657576 0.012387948742 0.19771231319 -0.6950906174 -0.0010976995723 
0.45146475796 -0.70259614083 -0.00015356556145 0.24113960396 -0.63426063005 0.0087453577905 0.4213764331 -0.83528203496 0.0042024162631 
0.2899313154 -0.7720724862 -0.045293508088 0.23732044809 -0.98917074822 2.3136381743e-05 0.20695271154 -0.88622368288 0.11168274584 
0.27652057685 -0.55855703743 0.015712970065 0.25791771141 -0.54405845284 1.7091476402e-05 0.14435217443 -0.55361778677 -7.7745751618e-05 
0.20853184434 -0.64342861244 0.084134139942 0.23537371042 -0.70529955401 0.038210424692 0.16360430977 -0.56516692548 0.016273143407 
0.3019945763 -0.55066982606 -0.16708274114 0.23948162862 -0.59830970086 0.070268853516 0.31007335909 -0.60569763363 0.033904818141 
0.26289194992 -0.58819791544 0.016316150769 0.23047607806 -0.70715450998 0.028078001739 0.17599579606 -0.58700331441 -0.00050409220687 
0.22854594627 -0.78496660291 -0.055363312934 0.22505519138 -0.51274954813 0.092689716296 0.23006087786 -0.4523444134 -0.0034091023704 
0.21440636974 -0.46168805649 0.0041163100837 0.2157278464 -0.52195962001 0.082876960918 0.1389946 -0.62528955148 0.01026872579 
0.36429180491 -0.7421623847 0.027223426226 0.22200879516 -0.82687240226 0.16193951789 0.14983543406 -0.54407017658 -0.074068871694 
0.20334063242 -0.46434517433 -0.019426678951 0.24798432793 -0.57377528918 0.00029363496219 0.15453636832 -0.48434476988 0.0050906972153 
0.17235472095 -0.65122900948 -0.07964723824 0.15222669464 -0.60253694898 0.0047569108471 0.24842167416 -0.48242218134 0.050877711065 
0.21714533619 -0.56856926032 0.040892505599 0.13722880925 -0.62925639822 -0.047294897183 0.29890904207 -0.60562600911 0.086527008697 
0.14060363548 -0.62286665205 -0.054997554919 0.21007112985 -0.55649903414 0.12938529496 0.22626978702 -0.61895559518 0.11214605127 
0.2682366444 -0.61607495618 -0.026283411299 0.26923151159 -0.69862595035 0.043880829471 0.20550281342 -0.68704312984 -0.0083745372016 
0.15448841322 -0.74774083802 0.014906498884 0.20611992783 -2.3160735628 -0.22248331193 0.53642501617 -2.4972222254 -0.17978374997 
0.073672680331 -3.1368896975 -0.13127085995 0.36625764749 -2.5503361312 0.12109938758 0.293984571 -2.7048822605 0.12501646353 
0.45319768259 -1.0944579589 6.7139294773e-05 0.37551149054 -1.8905168103 -0.0010614479337 0.33104288213 -2.460331113 -0.039240335314 
0.34271519328 -2.129564283 -0.044445652673 0.74671274551 -1.3505847083 0.13928731597 0.40108169988 -1.9907196705 -7.5700451048e-05 
0.59223698962 -1.954823797 -0.0020383312645 0.26623149102 -2.2450308505 -0.062701618408 0.29954408309 -1.0170522549 -0.028274292389 
0.25463769049 -1.10265807 0.0072044849774 0.69010049776 -1.7141918927 0.057702846478 0.34676415217 -1.3320097279 0.20888170333 
0.52645290972 -1.4098584561 0.38776554879 0.24446692428 -2.4761269531 -0.099551467554 0.57031888403 -1.6615086432 0.40711191662 
0.47510292956 -2.0568810971 -0.011203786524 0.25752772587 -0.67208198038 0.0047084031242 0.17406574372 -0.80703655291 -0.0035565675621 
0.2679275655 -0.99180936651 0.027009590806 0.39553670549 -0.77066571954 0.013467370282 0.29243741818 -0.87635974156 0.0740602963 
0.4028955557 -0.86423625722 -0.0019853030479 0.22815185285 -0.92737364025 0.0080414935737 0.19350949823 -1.1958412471 -0.058792018073 
0.25295838373 -0.93190970711 -0.017742222412 0.45153129667 -0.77744714192 -0.11863322355 0.23573708589 -1.3236600162 -0.092190214082 
0.28667773244 -0.78648903272 -0.08576351504 0.30648928243 -0.82552834318 -0.10455037074 0.058973474755 -1.0153910688 -0.067628158001 
0.23345902807 -0.88087097293 -0.056501952377 0.25330412435 -1.1976863192 0.042883001274 0.45822918069 -0.65810530914 -3.3301950085e-05 
0.25354174673 -0.87374250772 -0.098909279607 0.28163989509 -0.86075398686 0.028620019709 0.11712884361 -0.80805141751 -0.037279079912 
0.27051477604 -0.76405447626 -0.046683833904 0.30541143084 -0.81383059747 0.032268599612 0.26455485021 -0.71501002322 -0.11783438103 
0.32126735423 -0.81259180224 -0.073020417927 0.27395458736 -0.9062817441 0.096028405138 0.20576338411 -0.73539604031 -0.071526021457 
0.23943451408 -0.76782383418 0.064493837589 0.26494870546 -0.54828760917 -0.0020668787063 0.15355517693 -0.83000631001 0.081849553382 
0.19282546875 -0.87458981127 0.070122915992 0.15358094267 -0.86800443747 0.040615591397 0.16566454748 -0.90118162286 0.081808024114 
0.22890013982 -0.77242027475 -0.077253967894 0.20960731221 -0.7539110788 -0.04134575616 0.19259094122 -0.81193201972 0.067634343778 
0.16851012805 -0.69477219089 0.086240913594 0.25311108885 -0.81173575173 0.0037522058989 0.25765634491 -0.89636642466 -0.065342620117 
0.22706643023 -0.47508562658 0.0062002628519 0.20617776143 -0.48277183813 0.0012440394661 0.23812420739 -0.51508619323 -0.083210229892 
0.22267721475 -0.61384951393 -0.071143039796 0.16239113675 -0.60135785679 -0.012894590922 0.1735509158 -0.6681337798 -0.025625366877 
0.1997478089 -0.63436172361 0.13360434148 0.20890931593 -0.65084210804 0.029181470869 0.14724074029 -0.70883925373 -0.037230538088 
0.16677639517 -0.58508115613 0.063492016071 0.24183172042 -0.62888919353 0.091494483041 0.22508780511 -0.51459953928 3.2943366442e-05 
0.20695199994 -0.51112711692 0.049186379384 0.16954466419 -0.65856474639 0.027949562856 0.24666905657 -0.77091054091 0.10700614681 
0.20322605016 -0.63261948309 -0.0020634725568 0.14518775827 -0.73291863442 -0.07501334255 0.18231900149 -0.66969276655 0.049258159291 
0.2235037932 -0.62747139715 0.029645539535 0.24784664753 -0.59988130389 -0.069744647484 0.23197908264 -0.70198407255 0.12395365085 
0.23341787368 -0.58276464178 -0.0028890965044 0.24960797022 -0.71897251672 0.049320179623 0.14574577494 -0.74341542003 -1.4993260563e-05 
0.087499967499 -2.7788551625 -0.14323727716 0.038595192311 -3.2230698932 0.039892194851 -0.067797011276 -3.0640527557 0.054802538155 
0.021938889882 -3.2322175834 0.051551061207 0.097041702014 -3.0350041095 0.030406891665 0.092069235644 -2.9236029949 0.11464030793 
0.061917357735 -2.0080808883 0.0034302302446 0.13710570859 -3.1649807051 -0.18889387026 0.27828295185 -2.5010605193 -0.048583071596 
0.044074484592 -3.2217492931 -0.10508652469 0.2105051094 -2.9428316158 -0.1682979723 0.18575795776 -2.9796776955 0.0058259799981 
0.13826562231 -2.7272233562 0.093808547821 0.39918703282 -2.4109167803 0.028399478409 0.28552432654 -2.9139803863 -0.019558228437 
0.66628299706 -1.2541438716 0.011378156733 0.20551997625 -2.1631927886 0.00011188777572 0.40190444262 -2.4972824824 -0.29460489372 
0.41775414361 -2.5699720315 0.12134085587 0.39923515974 -1.4745944411 0.18583574014 0.2157294027 -2.0607991676 0.021500793448 
0.50633422155 -1.8843670388 0.18836627051 0.61071693463 -1.917269847 -8.2830065347e-06 0.40287873041 -2.5491188663 -0.021440126867 
0.6829768286 -1.7438002438 -0.072287732755 0.17249502139 -1.2429398041 0.16764120899 0.2880031057 -1.0430469792 0.00014210807106 
0.52173912431 -1.9305540782 0.10550621228 0.54924508211 -1.0166303995 -0.10331580115 0.5318805842 -2.0499572472 0.24585853519 
0.069338938848 -1.0812015623 0.0037226514559 0.075876972461 -1.1930101007 -0.079564275886 0.6071162806 -1.7956152911 -0.00049485789556 
0.4041258916 -1.4012959001 0.18851950766 0.096998582981 -1.1054242054 0.06810863626 0.35962980525 -0.94014508152 0.03263774789 
0.27205621787 -0.74618592826 4.4975640759e-05 0.30916445834 -1.3887557228 0.30115670827 0.35726046208 -1.1830215182 -0.18130961192 
0.30083097832 -1.0300165791 8.7730044595e-05 0.2360700973 -1.327442069 -0.11867442625 0.17773996666 -1.1103085021 -0.059650657922 
0.24058959284 -0.74434300968 0.00056875486345 0.31488441306 -0.82584679987 0.045709567171 0.23166233639 -0.86909394105 -0.0028238517108 
0.29552907946 -0.67670209923 0.0026156035972 0.32032362703 -0.70612479429 -0.00032562795668 0.36617136183 -1.1119112644 -0.024493052585 
0.33292775688 -0.86716814588 -0.043178026621 0.15757211696 -0.8751694885 0.033117713845 0.28665558001 -0.92403017039 0.050652595174 
0.25956115958 -0.83702954352 -0.00019411558424 0.10787342197 -0.79519376536 -0.00011724176718 0.18370430075 -0.68833441612 0.0042567655643 
0.32836895677 -0.82393956405 0.22477102933 0.11956742783 -0.88456811862 -0.032208073979 0.39748452918 -0.91596896793 -0.0019935518595 
0.095148430671 -0.64850257686 -0.006648765401 0.19116351518 -0.7653635816 -0.10515454828 0.17924674071 -0.68452210575 -0.0021823183232 
0.25973825382 -0.7071312455 -0.16916855715 0.16566712721 -0.68375001532 -0.045276637495 0.13395392181 -0.70105268493 0.02405386123 
0.17597962439 -0.67107109011 -0.019684424846 0.18543945556 -0.74321881557 0.035306729039 0.1378980374 -0.7679362637 -0.026940867171 
0.2171101256 -0.9026690486 0.082585982542 0.26823792291 -0.86482474591 0.013112396041 0.1526039788 -0.65226449524 0.017678289479 
0.34018323902 -0.77151051438 0.019389272857 0.14944053708 -0.5909087857 0.0015128569412 0.19732837654 -0.64825212891 -0.089911262657 
0.20056550318 -0.67628651824 0.035515305681 0.17630211455 -0.64456717359 -0.024874294647 0.17184322417 -0.76184290082 -0.081527532502 
0.20879977835 -0.80587125136 -0.035731810846 0.18258776136 -0.57002849408 0.0053610384331 0.23402595631 -0.73949394829 -0.11997003069 
0.20932684987 -0.5476029583 3.7087879679e-05 0.072947800487 -0.72771559143 0.066549307776 0.19985232793 -0.67324602303 -0.044198929302 
0.17889210912 -0.68417214055 -0.092768449429 0.17630254284 -0.59870065035 0.046192105005 0.14641472355 -0.73831497362 -0.00017831413909 
0.15757851033 -0.82404124327 0.042559482501 0.20160213931 -0.59909512754 -0.04357266175 0.16272325557 -0.7498916134 -0.0028626850659 
-0.11371353682 -0.44702721561 -0.026426764855 0.16317728186 -0.75727096962 -0.0034948362181 0.17478969072 -0.74617723282 0.0033350418152 
-0.093257962062 -3.2008552842 0.013687005682 0.039895450967 -3.2280538008 0.016366272578 0.033306254486 -3.2220723537 -0.1340586523 
-0.035044149237 -3.3462210591 0.07066340198 -0.0023482729465 -3.2819488831 0.09339256848 0.071711042605 -3.2049154803 0.034069671075 
0.21277928054 -3.0077350989 0.058619333248 0.12969104294 -3.2442784016 -0.10587005347 0.21338918754 -3.024799715 0.022874411174 
0.1337806134 -2.4834810243 -0.050160435256 0.058566776043 -3.1515306516 0.048510461195 0.15362010145 -3.0947125385 0.099568679784 
0.20086518854 -3.0842902672 -0.0020448445824 0.15031082096 -3.0327494107 -0.060737484796 0.094664821147 -3.2266231309 0.21071937254 
0.20183448859 -3.0538267023 0.065426051016 0.064650552038 -2.3438734155 -0.14053672403 0.23474631173 -2.4757172475 -0.026818369763 
0.19928412454 -2.3772821361 -0.038378035787 0.2374309239 -2.4132676842 -0.08827295409 0.22480090963 -2.8309682373 -0.010569155525 
0.25787790932 -2.3188207024 -0.1576941962 0.12241124241 -2.8359841711 0.005202717809 0.26439099016 -2.7995300782 0.093866028013 
0.46071098883 -1.7907981052 0.00013944000816 0.29556729369 -2.3292321127 -0.18456031384 0.027243263433 -1.427642783 0.0034057193916 
0.09541451757 -2.0829048838 0.16784706181 0.022507924491 -2.0094944812 0.028596480115 0.33335265098 -1.4884049338 0.0056025428949 
0.0035928869814 -1.2772636294 -0.031055395627 0.28188015802 -2.3329772158 -0.18436907496 0.4345694163 -1.4635370151 0.043464846035 
0.28134116428 -0.99641831327 0.0101209929 0.24572427786 -1.1199271434 0.0022486303911 0.37455891908 -0.85919996761 -0.0014028965366 
0.15634714538 -1.2949075877 0.11447745043 0.17991027437 -1.2275798741 -0.057417197931 0.10236743089 -1.3321057527 -0.0049671097346 
0.17069472588 -1.2876678985 -0.049511277915 0.11547576357 -1.3002705303 -0.10221540487 0.22606421529 -0.87270335658 -0.070891570067 
0.18007706033 -1.121746182 0.00064872747538 0.18068664641 -1.2955069845 -0.041643143488 0.18212812488 -1.4261209441 0.12861932104 
0.20499648582 -1.3209635859 -0.06775310601 -0.0082620561118 -1.0359248715 0.14207944483 0.11532081545 -1.0447350464 0.045395163446 
0.02616556831 -1.0129635995 0.0026865542014 0.20738196158 -1.3425299213 0.017847035537 0.29222529593 -0.80399603423 0.0045946016839 
-0.025289954626 -1.200070417 0.0016887606189 0.31320349993 -0.88093252302 -0.042741079531 0.21588583277 -0.90440966323 -0.13708261616 
0.44578351895 -0.84706284666 -0.1505891692 0.25663066493 -0.87451809205 0.046837842035 0.022680701002 -0.89864135471 -0.002477440269 
0.17144772805 -0.76909887464 0.086210346193 0.080090232421 -0.74525752446 -0.0024587628738 0.27932535233 -0.86439871442 -0.060188841975 