# vtk DataFile Version 4.1
vtk output
ASCII
DATASET UNSTRUCTURED_GRID
POINTS 1274 float
0.273724 -1.29442 -0.0531815 0.273987 -1.30223 0.0958374 0.279907 -1.29498 0.316539 
0.157859 -1.31629 -0.210675 0.29844 -1.29134 0.178027 0.411689 -1.23463 -0.0671513 
0.381733 -1.29106 0.32205 0.470526 -1.23552 0.493252 0.512271 -1.24374 -0.0076926 
0.637127 -1.25315 -0.00549922 0.539034 -1.34676 0.187637 0.641647 -1.2225 0.434153 
0.852489 -1.27237 -0.151265 0.843574 -1.25445 -0.0829167 0.657739 -1.296 0.158122 
0.75549 -1.27579 0.265921 0.696131 -1.27004 0.218899 0.794287 -1.20771 -0.0446633 
0.637094 -1.20691 -0.0555854 0.672419 -1.34643 0.00774891 0.715105 -1.19044 -0.0822052 
0.690767 -1.30811 0.278283 0.407613 -1.22937 0.301249 0.615418 -1.27202 0.224692 
0.912931 -1.23657 -0.0768019 0.328181 -1.23775 0.15819 0.657606 -1.20768 0.363483 
0.814328 -1.19484 -0.113018 0.921387 -1.31389 -0.00043133 0.823444 -1.2292 0.0380187 
0.971935 -1.2085 -0.0152929 0.656917 -1.22814 0.0469539 0.557866 -1.21873 0.378397 
1.0823 -1.22263 -0.287787 1.03343 -1.24153 -0.141581 0.503933 -1.22115 0.280647 
0.790063 -1.27863 -0.0124645 0.635012 -1.27366 0.285572 0.405273 -1.25058 0.137865 
0.956627 -1.20133 0.0584192 0.851551 -1.2263 -0.208572 0.79825 -1.23313 0.16011 
0.83839 -1.21208 0.10889 0.748289 -1.22064 0.216411 0.9036 -1.24341 -0.00569903 
0.983112 -1.23751 -0.236814 0.891844 -1.25223 0.291451 0.887228 -1.2179 0.230009 
0.452503 -1.29919 -0.306602 0.167877 -1.3325 0.28079 0.145217 -1.35877 -0.0654574 
0.0370368 -1.33439 0.173542 0.286566 -1.34239 0.471715 0.255929 -1.33819 0.384951 
0.239811 -1.31307 0.164465 0.379769 -1.35335 0.285172 0.151127 -1.34827 -0.274861 
0.359419 -1.41001 0.0556208 0.612001 -1.2894 -0.213208 0.217832 -1.35344 -0.222274 
0.399626 -1.34728 -0.151445 0.371753 -1.35509 0.404544 0.399584 -1.293 0.394625 
0.278228 -1.3483 0.208881 0.213544 -1.33803 0.0053286 0.485266 -1.26601 -0.187184 
0.413512 -1.36083 -0.0237596 0.583523 -1.34513 0.299808 0.433366 -1.2827 -0.142599 
0.304296 -1.2841 0.242987 0.552729 -1.3603 -0.0196541 0.376906 -1.27369 0.194479 
0.33143 -1.29835 0.0617862 0.330717 -1.26203 0.445529 0.508655 -1.2274 -0.0831568 
0.623843 -1.4128 0.10012 0.536987 -1.2501 -0.239177 0.214275 -1.28082 -0.179188 
0.568819 -1.35608 0.041241 0.541208 -1.30137 -0.0341281 0.328538 -1.26195 0.297428 
0.451668 -1.28832 0.450389 0.579877 -1.33502 0.469898 0.446617 -1.28086 0.264183 
0.511147 -1.29928 0.29116 0.452049 -1.36107 0.112175 0.615275 -1.30345 -0.0473953 
0.643603 -1.22713 -0.214081 0.97259 -1.28503 -0.284715 0.570368 -1.28611 0.172311 
0.475568 -1.28646 -0.250497 0.764676 -1.28926 0.343887 0.645662 -1.32727 0.220602 
0.577174 -1.23821 -0.0535224 0.999485 -1.26679 -0.0445834 0.741809 -1.25414 -0.060586 
0.684779 -1.29051 0.0495006 0.876331 -1.34913 0.161824 0.603163 -1.25481 0.0800345 
0.78039 -1.23225 0.388019 0.791284 -1.24177 0.46469 0.545543 -1.26306 0.23298 
0.826136 -1.35947 0.207836 0.62197 -1.22483 -0.144496 0.687899 -1.23217 -0.0329353 
0.553098 -1.24044 0.123888 0.732434 -1.23679 0.0213879 0.808466 -1.30046 0.178072 
0.828986 -1.25005 0.340568 0.681229 -1.26708 0.329881 0.8093 -1.22653 0.532537 
0.912154 -1.24672 -0.369726 0.769711 -1.30958 0.0489473 0.43788 -1.25594 0.192574 
0.720882 -1.2255 0.535002 1.16348 -1.22106 0.0119695 0.628566 -1.26628 0.530768 
0.734243 -1.2257 0.317726 0.705212 -1.24496 0.41521 0.579075 -1.24315 0.0156522 
0.958545 -1.29236 0.219564 1.10564 -1.23872 -0.166939 0.839096 -1.30525 0.0442065 
0.977055 -1.22586 -0.0923573 0.908455 -1.28982 0.0616779 0.61621 -1.2365 0.147633 
1.32374 -1.19518 0.526799 0.738741 -1.25609 0.161413 0.940604 -1.22513 0.193443 
0.952696 -1.20815 0.423001 1.21182 -1.26331 -0.182587 0.905221 -1.23218 0.0978261 
1.04527 -1.22572 -0.00796604 0.863816 -1.23337 0.171968 1.10084 -1.25811 -0.0319315 
0.963431 -1.26272 0.031754 0.0867158 -1.41341 -0.24656 0.285904 -1.36074 -0.213012 
0.430052 -1.40919 -0.397639 0.0351686 -1.3596 0.315262 0.213248 -1.32109 0.482533 
0.0967066 -1.40799 0.156732 0.216619 -1.34415 -0.402017 0.500735 -1.31861 -0.348203 
0.087097 -1.35984 -0.381468 0.493797 -1.34764 0.459837 0.251052 -1.27895 0.529061 
0.147064 -1.35434 0.379375 0.24112 -1.41179 0.29769 0.0967078 -1.35816 -0.0124889 
0.27699 -1.31995 -0.156649 0.0801086 -1.35883 -0.288931 0.472523 -1.35386 0.309892 
0.348677 -1.40768 -0.0292927 0.12964 -1.34351 0.230593 0.213332 -1.33454 0.0981967 
0.219701 -1.29564 0.291394 0.321023 -1.29138 -0.295056 0.270967 -1.34801 0.0403835 
0.422594 -1.31836 0.166219 0.0827138 -1.2926 0.215284 0.515557 -1.30033 0.419393 
0.893358 -1.30015 0.533049 0.546801 -1.35546 0.420434 0.240936 -1.29487 0.228639 
0.318256 -1.35521 0.156945 0.318861 -1.35428 0.0925849 0.367446 -1.28835 -0.232356 
0.520214 -1.33275 -0.241292 0.492792 -1.2928 0.203944 0.552126 -1.22485 0.523075 
0.6447 -1.28742 0.408269 0.777102 -1.34093 0.461703 0.423956 -1.34431 0.22904 
0.676999 -1.41468 0.136482 0.594975 -1.22168 -0.399396 0.601308 -1.35847 0.18848 
0.853886 -1.22679 -0.316501 0.391429 -1.29511 -0.298388 0.828522 -1.29957 0.283808 
0.759244 -1.28959 0.419835 0.332902 -1.28445 -0.172145 0.571441 -1.27624 0.288831 
0.670157 -1.27211 -0.166594 0.490075 -1.2495 0.145383 0.879332 -1.29194 0.214144 
0.970483 -1.38761 0.0885673 0.535714 -1.28034 0.0564218 0.994684 -1.25482 0.444076 
0.648799 -1.33023 0.341029 0.941757 -1.29602 -0.0633361 0.675565 -1.20722 -0.270049 
0.725933 -1.22886 -0.145008 0.791352 -1.30411 -0.0805969 0.820781 -1.34977 -0.0452072 
0.739828 -1.31793 0.178607 0.703179 -1.35478 0.138705 0.859787 -1.29913 -0.0262913 
1.00875 -1.24924 0.0868164 1.06205 -1.27474 0.0387265 0.912461 -1.25086 -0.140512 
0.786892 -1.28868 0.115072 1.10912 -1.28388 0.395115 1.00428 -1.24673 0.188785 
0.818534 -1.24321 0.228996 0.699051 -1.2585 0.111004 0.931822 -1.36122 0.216845 
0.857249 -1.28511 0.119004 1.19593 -1.36082 0.117081 0.947339 -1.35395 0.143523 
1.12382 -1.25879 -0.0977761 1.02655 -1.26067 0.275258 0.763455 -1.22421 0.0951305 
0.993248 -1.35349 0.196724 0.297598 -1.4153 -0.358811 0.199557 -1.3722 -0.327206 
0.0322037 -1.4135 -0.0344882 0.441452 -1.28068 0.531353 0.0339858 -1.41171 0.191262 
0.0879666 -1.32414 -0.106975 0.340246 -1.30684 -0.394417 0.0369048 -1.36219 0.0211485 
0.0359819 -1.34429 0.48517 0.346591 -1.40639 0.198478 0.151903 -1.41314 0.444433 
0.324039 -1.34688 0.532516 0.0881831 -1.39525 0.22721 0.326701 -1.35879 -0.265308 
0.218199 -1.3506 -0.129238 0.248999 -1.41429 -0.202566 0.125114 -1.33767 0.152905 
0.312008 -1.29145 0.502102 0.091557 -1.33743 -0.219706 1.00567 -1.41418 0.472913 
0.234259 -1.40735 0.202628 0.218186 -1.34143 -0.0604558 0.403498 -1.35848 -0.282326 
0.151035 -1.32345 -0.00110059 0.582384 -1.41374 0.215195 0.469152 -1.4131 0.144574 
0.452728 -1.28902 0.340978 0.274147 -1.35686 0.322706 0.194572 -1.36249 0.157678 
0.31175 -1.34571 0.270337 0.802239 -1.4127 -0.226649 0.190349 -1.38796 0.264676 
0.356524 -1.34232 -0.0620706 0.161649 -1.30569 -0.120868 0.394459 -1.41526 -0.141589 
0.293156 -1.35419 -0.0873886 0.465683 -1.33974 0.396152 0.479394 -1.25483 0.394872 
0.297983 -1.35987 -0.0221863 0.358782 -1.34947 0.0162005 0.800655 -1.29731 -0.212063 
0.379079 -1.36167 0.155162 0.336268 -1.3453 -0.17952 0.352801 -1.29992 0.132046 
0.377734 -1.29362 0.256121 0.347591 -1.33267 0.21155 0.526309 -1.2356 0.436538 
0.447872 -1.29508 0.108971 0.734721 -1.25885 -0.210343 1.05808 -1.36695 -0.147736 
0.310571 -1.30423 0.00391277 0.444174 -1.30493 -0.0197382 0.83604 -1.41477 -0.140611 
0.61352 -1.36219 -0.0112751 0.650136 -1.3631 0.275074 0.501817 -1.35063 0.244406 
0.518593 -1.26034 0.345253 1.14793 -1.36802 0.380355 0.628357 -1.36838 -0.0736266 
1.1204 -1.2836 -0.219129 0.725217 -1.29638 -0.115849 0.85398 -1.32452 -0.107889 
0.687043 -1.36358 -0.051521 0.74672 -1.34148 -0.00647323 0.897972 -1.3546 -0.0556305 
1.04977 -1.23583 0.467593 0.636008 -1.3149 0.0924911 0.841331 -1.41501 0.254276 
0.652735 -1.25732 -0.0940424 0.895608 -1.35377 0.0896189 1.09832 -1.31878 -0.000735309 
1.01076 -1.31095 0.00851617 0.813245 -1.37055 0.0465885 0.753676 -1.33949 0.101755 
0.695979 -1.29779 -0.0345533 1.05064 -1.34985 0.155104 0.854863 -1.41217 0.091067 
1.18072 -1.23051 0.410805 0.994464 -1.28982 -0.106388 1.0978 -1.40835 0.173127 
0.96341 -1.37552 -0.036796 0.971623 -1.31639 0.0849905 0.868539 -1.20723 0.464157 
0.0341698 -1.37746 -0.227514 0.0314948 -1.41421 -0.17316 0.0354917 -1.41021 0.467911 
0.0724859 -1.41424 0.307489 0.0840242 -1.37156 0.528368 0.099915 -1.41553 0.47946 
0.0769273 -1.41064 -0.339104 0.166935 -1.39485 -0.39495 0.384415 -1.36054 -0.403686 
0.0336249 -1.41208 -0.285802 0.0514889 -1.41294 0.0665878 0.264993 -1.4091 0.470977 
0.0356083 -1.41055 0.363714 0.240041 -1.4087 0.370339 0.142939 -1.41182 0.528755 
0.301819 -1.35419 -0.33215 0.142863 -1.41429 -0.331476 0.145818 -1.41471 -0.269142 
0.640532 -1.41014 -0.320293 0.424292 -1.41293 -0.237084 0.116001 -1.41367 0.0606689 
0.0974697 -1.34397 0.422128 0.392185 -1.3318 0.529311 0.109641 -1.35191 0.315407 
0.501013 -1.4062 0.400846 0.175092 -1.37133 0.0535942 0.310231 -1.40789 -0.168348 
0.292566 -1.41419 0.0897193 0.209901 -1.40912 -0.0931018 0.355451 -1.3488 0.469473 
0.316806 -1.32235 0.415528 0.291624 -1.40986 0.249614 0.713867 -1.35034 0.518537 
0.207397 -1.35185 0.331862 0.411353 -1.35003 0.349645 0.453569 -1.34853 -0.224248 
0.383472 -1.35576 -0.218999 0.0655639 -1.35877 0.10911 0.455396 -1.40706 -0.173077 
0.2434 -1.35268 0.267283 0.263783 -1.35817 0.128542 0.420785 -1.35371 0.450476 
0.336685 -1.32085 -0.122254 0.457422 -1.41043 0.0497809 0.629392 -1.28019 -0.371965 
0.523893 -1.29209 -0.290502 0.569951 -1.41475 0.0648927 0.519346 -1.28587 0.489301 
0.64823 -1.41098 0.225327 0.550592 -1.35149 -0.296344 0.456655 -1.41397 0.209198 
0.680686 -1.36145 0.394709 1.07285 -1.29117 -0.270013 0.463165 -1.28398 -0.079742 
0.428162 -1.34147 -0.0862024 0.501958 -1.32643 0.0149922 0.438345 -1.34184 0.0378481 
0.529597 -1.33083 0.355537 0.570926 -1.28932 0.535691 0.942804 -1.25456 0.531367 
[...]
POINT_DATA 1274
FIELD FieldData 10
VELOCITY 3 1274 double
2.6927788606e-05 -9.2124858351e-05 -1.9867318424e-05 8.8669823261e-05 -3.3741776309e-05 9.1613237655e-05 -0.00017223098187 -2.9615112389e-05 0.00022508307566 
2.9907042218e-05 1.9197559469e-05 7.1003122618e-05 -0.00024523219209 -1.831552006e-05 -9.1856881721e-05 0.00029944608367 -9.0737072672e-05 7.8310538678e-05 
-0.00038141952687 -4.0150414708e-05 0.00014003965085 -0.00054775824198 0.00015017701581 -0.00016795453325 -0.00019803676428 0.00017223688866 -0.0011279199998 
-0.00030397642412 -0.00060807837034 -1.9484671273e-05 -0.00018465722555 2.9204981567e-05 -0.00012994770173 0.00070111567225 -0.00030554104012 0.0024551998742 
-0.00037176425331 -0.0011671782305 0.00072402451925 0.00061941083317 -0.00044717182318 -0.00061445465811 0.00086503226816 -0.0014030614696 -0.00033907232347 
-0.00024841859321 9.9493244767e-05 0.00069707290344 0.00023113872276 -0.0010046718347 -0.00010863834042 -0.00090452592598 -0.0010158643657 -0.0018480943781 
0.00087870020615 -0.0034192750859 -0.0026222020392 0.00028910048018 2.53525615e-05 4.7301355589e-05 -0.00037450356639 -0.0016652221063 -4.9801046859e-05 
-0.00021127096817 -0.00015759575318 0.00030857517522 -0.039557180368 0.0016310252481 -0.043632064349 -0.0002817452244 -0.00022575279163 0.00031492901861 
0.00036597724456 9.795006352e-05 0.00040028113581 -0.024482748389 0.0041101165246 -0.025308825463 0.00014594510713 -0.00086188241543 0.0022429396829 
0.0015231386467 -0.00017291696435 -0.0010103202566 -0.00023349446973 -5.9160941009e-05 0.00024543252569 -3.9561061077e-05 -0.00045239023447 -0.00018331817935 
-0.00046233700526 -0.00015858936627 0.00043273420263 -3.0498291904e-05 0.00016630554395 -0.0004665516997 -0.00035132953027 -0.00022621879788 0.00017585136286 
-1.3801693739e-05 -0.00018039421985 5.4273173494e-05 0.00048388366975 8.7193348839e-05 6.3609858108e-05 -0.00013753471455 -0.0001633508565 5.3511018193e-06 
-0.00048541281191 -0.00023954477034 -0.00016596643525 -0.00018306728872 -9.7793453854e-05 0.0006524325321 -0.00014282264332 -0.0001955884266 -0.00018828451918 
0.011434722154 0.0009320783755 7.963941313e-06 -4.9866832121e-05 -0.00035909946255 -0.00012763208499 -0.00028295388952 -6.2751581017e-05 0.00016244987965 
-0.00057399954242 -0.00020160264477 -0.00013631593128 -6.9106446705e-05 -0.0012670556313 -0.00085093808769 -0.00033742480758 -0.00033454959074 0.00080596907713 
-0.0049766115497 0.0010110922772 0.00013789019214 -6.120422804e-05 2.4532904525e-07 0.00041476832844 -0.0014373398475 -9.213385033e-05 0.00058570628208 
-0.00076143519558 -0.00028659509432 -0.00038721002364 1.4851810015e-05 -3.4271971308e-05 -9.1084147826e-05 4.1479986571e-06 -0.00010061770793 0.00010347951175 
1.225143554e-05 -0.00013854310998 8.2038161015e-05 -0.00020818982029 -6.7265727583e-05 -0.00012313884733 -3.8945746583e-05 -7.5884634024e-05 4.7145260158e-05 
-0.00025479616366 0.00019832371797 -0.00051893476552 -0.00014601553274 -6.7648031546e-05 -4.0910474116e-05 0.00038174346139 -1.563868409e-05 0.00024974246174 
5.4202544598e-05 -2.8025655685e-05 0.00012984632779 -0.00016882068946 0.00016564428074 -0.00037959182995 2.2805789443e-05 -9.1173097997e-06 0.0001889622122 
4.2356955715e-06 2.3762850442e-05 0.00012319825765 -0.000199754128 -0.00016459537 7.9699626203e-05 -0.00047503621155 -3.5055707254e-05 8.4169162691e-06 
-0.00016218488064 2.986404585e-05 1.741767328e-05 -0.00016438041729 -0.00031629206272 0.00023608675122 -0.00013667935847 -0.00030067843199 -0.00031784066537 
-0.00011976659193 1.5394984574e-05 0.0001504355156 -0.00015385550596 2.1897105849e-05 0.00013661579377 -5.4857363015e-06 3.1905595053e-05 -4.0148378531e-05 
-0.00010574398373 -3.7513884031e-05 -0.00011265945841 -0.00011229947835 1.9279272541e-05 0.00022413393946 -0.00030426296863 3.1739397641e-05 -0.00018602409998 
0.0003089649585 -5.0628994451e-05 -8.4787298866e-05 -0.00025613179851 0.0001560951939 -0.00011711746155 0.0001674239493 -5.8699763443e-05 -0.00024153075435 
-0.00013547275095 8.4016282359e-12 0.00032163372989 0.021822597588 -0.0010165973111 -0.0046586664811 -0.020384953418 -0.0073098901593 0.044889290415 
-0.0016026318963 0.00022637784619 0.00062638357049 0.00099222015334 0.00021348990092 9.6730656106e-05 -0.00028947583804 -1.9130319849e-05 -2.4605296366e-05 
-0.00043616868209 -3.3969717895e-05 -3.0957041118e-05 -0.00022407063297 0.00011436864342 9.9004473412e-05 -0.00024501542539 -1.2402241854e-06 -8.4712162027e-05 
-0.00018704162297 -0.00023790265329 -0.00023054970161 -0.00012937530442 -3.6288146587e-05 -0.00010424876458 0.0018944281573 -0.00067833696163 -0.0011231667845 
0.0012030590681 -0.00049589965487 0.00021636012524 6.0416676504e-05 -0.00034303871303 0.00033352454468 2.2042996058e-05 -0.00030629224258 3.9263147813e-05 
-0.0014215853641 0.00042071733241 -0.00037798629227 -1.5093997118e-05 -8.8256513948e-05 0.0004534422105 -0.00019225651934 -0.00017505317216 0.00023793413269 
2.7867762668e-05 -0.001692917536 -0.00055617998838 -4.6265698466e-05 0.00012150883101 0.00024586136023 -0.00022874129372 -0.0020050780727 -0.0012337226951 
3.2905777889e-05 0.00022635587258 -0.00011620038431 0.00014474308979 -0.00013044940649 0.00045567550846 -0.00012622069618 0.00029515588656 -0.00048333841151 
-0.00026579405503 -8.6698616039e-05 0.00053871156542 -0.00013219578025 0.00016137808453 0.0002248986427 -0.00010919236969 -2.7989254619e-05 -8.6477096933e-05 
-0.00030724573214 7.5286212201e-05 0.0003370863376 0.00098088082879 -8.2793830185e-05 -0.0023496588302 0.00032044664416 -0.0027771088659 -0.00060179206161 
0.00019872328559 -0.0002463543573 9.5321572368e-05 -6.6601363505e-05 0.00032290951277 -2.5621159811e-05 0.00019565413169 2.2148214664e-05 1.7537855518e-05 
-0.00059664560996 -0.00046511753134 0.00031525591682 -7.0871720731e-05 0.00012569118 0.00030178286565 0.00033049770802 0.00032299622824 7.7636919842e-06 
0.006015572615 -0.0061951659966 0.00883843352 -2.3297109396e-05 -0.00028712438716 0.00013822825327 -0.00030119782523 -8.8397669165e-06 -5.51429698e-05 
0.0044737138291 -0.015727560021 -1.9503695168e-05 0.00036083943546 -0.0004678029582 -4.1691843931e-06 -0.0073609866976 0.026513603052 0.0020061998213 
0.00011161421291 9.8425578671e-05 0.0007998239319 0.00020967584542 -0.0004861378203 0.0010344534117 -0.00039516137536 -0.00042938986787 -0.00045835105551 
0.00029079072486 -0.00045065272583 -0.00028065480888 -4.0687326924e-05 -1.095260702e-05 -5.9604041985e-05 -9.3136220796e-05 -0.00040379543447 6.7836855297e-05 
0.00028219327264 -0.00014017288598 -6.4379699213e-05 -0.00025088440198 -8.3781340886e-06 0.00017731118085 0.00097287404931 -0.0012813435691 -0.00023188100625 
-0.011106422893 -0.0097850668592 1.3791412616e-05 4.0276005605e-05 -0.0011045109225 -0.00097874456539 -0.0013668097178 -0.00047207639126 0.00078634309582 
-0.0004236741308 -0.00018493756337 0.00012874331135 0.00031656133764 -0.00012714448092 -0.00035893144573 -0.00016673910769 0.00014169885081 -5.3123143533e-05 
-0.000450658193 -0.00022704091507 -2.585146607e-05 -0.00024827827346 -0.00039061587883 0.00021087717763 -0.00046164072564 -0.00011233301958 -0.00027127928331 
3.5544260345e-05 -0.00041286318799 0.00025675744055 8.9959714725e-07 -1.1801451412e-05 4.513421324e-05 2.0874275121e-05 2.6621766997e-05 -4.9964067103e-05 
3.7378009019e-05 -6.0256815236e-06 -2.777690484e-05 3.9977531901e-06 -2.1656153852e-05 0.00012968020421 -2.8934996697e-05 -7.3036304338e-05 -1.1584518984e-05 
-7.5890424401e-05 3.1995427797e-06 -9.0184810977e-05 3.7745506512e-05 2.8844675202e-05 6.9549206397e-07 -0.00027050397012 0.00013906403814 -0.00013954439854 
-8.9219213183e-06 1.7649671103e-05 -4.1121939424e-05 -0.00023003783489 1.8008048748e-05 -3.8797051397e-05 -2.422585536e-05 -6.0804214856e-05 -1.0398926269e-05 
8.4555020063e-05 2.7492252995e-05 4.9155013186e-05 -2.7033901502e-05 -5.7106226821e-06 0.00016005173322 -0.00011058389796 -1.0135030263e-06 -1.8295825625e-06 
9.4522559522e-05 -0.00019087297644 0.00036030384855 3.5024686954e-05 -3.3880917861e-05 -3.3927989937e-05 -0.00032079983877 -4.4319980808e-06 -9.6923304143e-05 
-0.00010627957485 0.00018269283428 0.0001873222694 -6.0831249588e-05 -1.7292483174e-06 -8.3546401624e-05 -9.0077233352e-05 -2.0433338881e-05 -6.9517425798e-05 
-6.359401185e-05 -5.2678569744e-05 -1.0882952841e-05 -0.00072995905502 0.00018161018798 -0.00024486055604 3.5463246618e-05 -4.1891776547e-05 3.917635184e-05 
-8.5063455982e-05 4.4114368294e-05 -0.00026324671358 -0.00010602562373 3.6611072461e-06 4.5955796637e-05 -0.0001128580609 -0.0001493241309 -0.00022145375511 
-0.00018682237895 1.3644633087e-05 -0.00013456903582 -7.2923348904e-05 -1.4465572537e-05 7.8881647735e-05 -0.00014196997148 3.9029353221e-08 -4.4211899488e-05 
-7.6638648514e-05 -9.4556243663e-05 7.6248962881e-06 0.00013096892498 5.4817406595e-05 -3.8871289984e-06 -0.00063990939629 -0.00024888369076 -0.0002526675412 
-3.8819346976e-05 2.167629633e-05 -0.00020725541946 -0.00029256575805 3.3535998797e-05 4.7009106214e-05 -0.020646190009 -0.0035318977698 0.026076323839 
-0.00018634488654 0.00020564720535 -4.0552408696e-05 -0.00027977542424 0.00024285347527 0.00070740176711 -0.00040584108835 0.00011033703227 -0.000199396605 
-0.00017583026187 -0.00013253919353 2.554337729e-05 -0.00031503849206 -3.3291105375e-05 -3.6710904319e-06 -0.00017023523416 -2.1807724388e-05 8.559914812e-05 
0.00063883943986 -0.00022693047917 0.00025440776619 -0.00076032009457 -0.00024104088383 -0.00030588098732 -0.00017208267895 -0.00018048363915 0.00013750017238 
0.00030839518426 -0.00034655626455 0.0005237332367 -0.00017365883116 -1.5711693994e-05 3.6722393735e-05 -0.00015070505416 -4.0849131007e-05 -0.00012265489273 
0.00035550728861 -0.0016320140002 -0.00037287552024 9.7136943153e-05 -0.00017191370361 -8.6385164698e-05 0.00027457025014 9.3910720613e-05 0.00026256188012 
-0.00019379993442 -5.7458173936e-05 0.00010394291529 -0.00023780826202 0.00010034847468 0.00016459442948 0.00031974300692 -0.00034940491603 -0.00018730995151 
-0.00013683316045 9.5341711439e-05 0.00010464690973 7.403412058e-05 -8.2058438714e-05 0.00037165053821 -0.00037454546102 -0.00026762751728 -0.0011201329376 
-8.4397740622e-05 -0.0011040149045 -0.00036960518147 0.00017319097138 3.3488429036e-05 -0.00042828622361 0.00018665153762 -0.00017143950138 -0.0006483578162 
0.00043053948406 -0.0011878916636 -0.0013887345959 -0.00065629758636 -0.00081671209399 -0.00078605258568 -0.00031694671687 -1.5448515289e-05 7.888323805e-05 
0.00011140085589 1.0287804484e-05 -4.0634336487e-05 4.1901756584e-05 -0.00011465089188 -8.0108250228e-05 -0.00044748618968 -0.00092301905106 0.00064973582859 
2.2468474072e-05 -7.3947451311e-05 1.5657118749e-05 3.2450904615e-05 -0.00014845660366 -0.0017665191734 1.9209277881e-05 -2.9644017044e-05 -5.6992507769e-05 
-0.00040690280513 2.4202591564e-05 0.00020528891403 -0.0011159132327 0.00090547483111 -0.0001862747661 -0.00025639944256 -0.00026829390602 -0.00047810377901 
4.7458381321e-05 -8.5884629785e-05 1.4583792793e-06 9.0737126455e-06 -0.00034420323213 0.00021869381764 8.3029376322e-05 0.00015973023498 8.4753704226e-05 
-4.0227335307e-05 -0.00017287241016 -0.00012008234125 -0.00021696746839 7.5538569969e-05 -0.00012653357238 -0.00020274898304 -0.00018296792119 0.00011408978703 
-0.00014737586895 -0.0008365199738 -0.00030735551722 -0.00022645585575 -2.68148995e-05 7.2565370248e-05 5.0972425173e-05 -1.2087756627e-05 -2.0311058731e-05 
5.283284288e-05 -0.00013581352714 -7.953859489e-05 -0.00019422230062 1.4587016351e-05 -2.3514560931e-05 2.8994103837e-05 -0.00027480835842 0.00016938152277 
9.2379723046e-05 -0.00022896638594 -6.1003601733e-05 3.6893568677e-05 6.8256314613e-05 -0.00081276358311 -2.3619316788e-05 5.6865362892e-05 5.4598152607e-05 
-0.066808305558 -0.01621427649 0.063811789115 -0.00014441120151 -4.4768486974e-05 0.00011812791027 -0.0002531682514 0.00013298748016 -0.00015715553652 
-0.00014753669813 -7.5555029929e-06 2.1615011588e-05 -0.0001174985794 0.00013856755439 0.00013597227571 -0.0001530880073 -8.8311889047e-05 -0.00028020719753 
2.6049146018e-05 -0.00024251489948 0.00021674636548 -0.00061799765892 7.3975388723e-12 0.00080473983808 -0.00017599221941 3.0692917382e-05 0.00016047222947 
-5.2777581685e-05 -4.4530136016e-05 -0.00012700350911 5.1810606626e-05 2.4668494345e-05 -9.844131966e-05 3.5654609969e-05 1.2120228181e-05 0.0014089887686 
-0.00010822095956 2.4348133161e-05 -7.9546791426e-05 -1.1773352543e-05 -0.00011633887137 0.00020338164517 6.0431434649e-05 5.3173714329e-05 5.5668928656e-05 
-7.1286859529e-05 -0.00010339135987 0.00013462496404 -2.0278890164e-05 -2.8562638365e-05 0.00012921793878 -7.6151377951e-05 -2.8045380979e-05 0.00011912396594 
-0.00033734116217 -3.2638457436e-05 -4.3311431744e-05 -0.00036629695522 -6.7714794006e-05 5.4152933552e-05 -0.00016854079349 1.9952743372e-05 -5.7019623357e-05 
-8.7720469864e-05 4.6056883279e-05 5.5528341216e-05 0.0001891711171 -2.3033788503e-05 -8.5478617466e-05 -0.00012585313826 -6.8046198967e-05 -1.8830987461e-05 
0.00019742708882 -2.6526412104e-06 4.8644473065e-05 9.2999720299e-05 -9.0552336755e-05 6.7996008191e-05 -0.00017182012762 5.2374683839e-07 1.2059741685e-06 
0.00018869698826 -4.2594185563e-05 1.2356329834e-06 -0.00025960189077 -5.1532343432e-05 -3.2970152243e-05 -0.0002652571803 -7.0982748861e-05 -2.7395353342e-05 
-5.5281431522e-05 -2.351446e-05 5.9000385102e-05 -0.00010286253213 -1.4070462058e-05 9.4326922014e-05 0.00043116967481 -0.00028279727915 -0.00054561147898 
-0.00010121852756 4.3857790732e-05 0.00010358890374 8.8742738371e-05 2.0629715921e-05 -6.4336471035e-05 -0.00024571891604 -4.3563717554e-05 -0.00014988283694 
-0.00033046462651 4.663273182e-05 0.00015057598922 -0.00016741647688 1.4591259455e-05 -2.3255908215e-05 -0.00040318770354 -0.000174073972 0.00016842377595 
0.00011893327974 -2.708923492e-05 -0.00017391650236 0.00054222944432 -8.1457068514e-05 -0.00073611481719 1.9330218145e-05 -3.0672955297e-05 -4.1168338011e-05 
-0.00011453025684 -1.5528805906e-05 8.5712098964e-05 0.00039493851687 -0.00022063869081 -0.00023435944088 0.0063098468635 -6.4250207289e-06 -0.0029135478526 
0.00026689555454 -0.00016667123986 -0.00042264980354 -1.7934662341e-05 -0.00035222057898 0.00048072577097 -0.0002399522371 -5.5778798702e-05 -2.0836567199e-06 
-0.00022255356725 -0.00023908891388 -3.7580335815e-05 -4.9502421423e-05 1.2905694902e-06 3.5382098543e-05 0.00079841394788 -0.00085497690443 -0.0012020151633 
6.8560230552e-05 9.24838924e-06 -1.4785583129e-05 -0.00073954715638 -0.0015473529828 -0.0014388626655 -0.0017034956114 -0.0012472641371 0.00068073782921 
0.00017406972269 1.0881367314e-05 0.00012954450537 -0.00061966451116 -9.6807249957e-05 0.00031082965064 -0.00024117230112 7.4482841384e-05 0.00015568554424 
0.00049880310819 -0.00054282823884 -0.00030074003828 -0.00015867457781 0.00017555632516 -0.00037259469103 -2.1281219672e-05 8.2153230775e-05 4.9467444433e-05 
-0.0011635331672 -0.0035386397303 -0.0032843463779 0.00013257345767 -3.4543047115e-05 0.00046941249052 -0.0002454881184 -0.00019764013781 -0.00021355050032 
8.2211472637e-06 -0.00023442026917 -6.0876242259e-05 0.00056653644404 -0.00067226667209 -2.2761785556e-05 -0.00013737685785 -1.0366174884e-05 0.00027646898534 
-0.00080868699936 -0.0028378184843 -0.0036928143534 -0.00017539856445 -2.7791080207e-05 -6.5622126259e-06 1.5848180675e-05 2.4359237183e-05 0.00052385753565 
-0.0043915308761 -0.013398997326 -0.0032180938456 0.00015963744122 -0.00033454555464 0.00041935697799 -0.0001511353475 -2.6166903997e-05 -0.00015237749419 
-0.00018220900757 -7.0863799406e-05 2.5414397259e-05 -7.8858260504e-05 4.0111054094e-05 1.0099562384e-05 -0.016496962997 -0.0020300218961 -0.014183157757 
1.0877629564e-05 1.4833459972e-05 -0.00021823681988 -0.00012809668383 0.00012032511995 -9.4325136687e-05 5.2439828216e-06 9.4343814843e-06 5.7919538947e-05 
-9.2283345921e-05 -9.9474118705e-06 0.00016683215244 -0.00013310633883 0.00019128421368 -1.5081785205e-05 -4.0973731616e-06 -0.00015192505915 0.00021205987068 
4.5139939654e-05 2.652361493e-05 -0.00014172804452 -1.5426018849e-05 8.8425631208e-05 5.337059492e-07 4.1939305001e-05 -3.3691148146e-05 2.8701698538e-05 
1.7428248744e-05 8.2574720269e-06 -6.5349707955e-05 -0.0001221501469 -4.1067719124e-05 9.2899901484e-05 -0.00014935280756 -3.5620420669e-05 -3.8578997071e-05 
-6.2412629345e-05 3.1015515064e-06 0.00014310648209 6.3242439786e-05 -1.2778476193e-06 7.878511386e-05 -0.00025105213519 -2.8513486754e-07 -0.002604968063 
-0.00075978023783 0.00020390205115 -0.00037683250461 1.7617202665e-05 -0.00010083641778 -6.3313810762e-07 -6.5893874941e-05 9.4605749273e-05 5.623392063e-05 
4.0457140485e-06 -1.0350519633e-06 0.00019863544079 7.7776788062e-05 5.7592897891e-06 -8.873590046e-05 -0.00013020283734 3.6634711672e-12 -0.00013117511104 
-1.4879365486e-05 3.5258952087e-05 -8.8882708421e-06 -0.00010461736726 -2.2161009849e-05 2.8225916016e-05 -1.9723207707e-05 3.9764665549e-05 0.00010387547344 
5.3067813817e-05 -6.5968978675e-07 -0.00026924994986 1.4079436832e-05 -9.1562423134e-05 -0.0001435631626 -9.1601176507e-05 -2.0087087855e-05 -1.7367141285e-05 
8.880179055e-05 1.1075965189e-05 -0.00010220933663 -5.2891988206e-05 -6.7492332186e-05 0.00013452310926 -0.00022071263397 -4.0391011482e-05 9.1506565143e-05 
-0.0001410996822 0.00013152646739 -4.1856510853e-05 -0.00016483912598 1.7453082423e-05 -7.2983208909e-05 -0.036939879076 -0.012737074743 -0.00030590353532 
-0.00022544337209 5.6142625325e-05 0.00012460550375 -0.00035857276835 -5.7337574748e-05 -6.5965623219e-06 0.00013132097646 2.7870334787e-05 7.3492371369e-05 
-6.2178841222e-05 -6.5645064822e-05 -8.8077657686e-05 -0.00010523383546 2.6593916053e-05 -5.3375068285e-05 -6.6273878794e-05 3.3432242756e-06 5.35062313e-05 
-6.3101840828e-05 -6.3021633525e-05 -1.7030661352e-05 -0.00017255286535 1.1965968572e-05 9.7624175237e-05 -0.00017961085941 -4.3530969948e-05 5.5869122289e-05 
0.00017263465405 -5.8885486855e-05 3.1183911983e-05 -0.00013675491727 -0.00018738849824 0.00021938848884 -0.00055908958633 -0.00051132066389 -0.00078658185717 
-0.0010051654932 0.0004196759288 2.1526566495e-05 0.0001071752721 -3.1175227026e-05 -2.1303007099e-05 -0.00062837685991 8.1492824631e-06 0.00028891387928 
-0.00019727218602 3.769611859e-05 -2.8051519885e-06 -0.0010238958671 0.00040955869467 -0.00093195151497 -5.821236862e-05 -0.00011881611525 -0.00012590274014 
1.3330817738e-05 0.00017945989898 0.00018900696293 -6.0206874455e-05 -0.00017071105999 0.00012644263357 0.00018832718128 -8.3987211305e-05 -0.00030042179973 
0.00012701835065 -6.3255919516e-05 0.00014464073516 0.00029671516104 6.7912530316e-05 -0.00016676088782 0.00027669468604 8.129027907e-05 -4.4053829749e-05 
-0.00030913736428 -0.00024614003879 4.6217700142e-05 0.0035352833604 -0.0017063462337 1.6579440632e-05 0.0001109138952 -0.00044547808885 1.7420294868e-05 
-0.0016917874556 -1.3085093493e-05 0.00064227263727 -0.00011161737867 -0.00017050165132 6.6556900521e-05 0.0007107659982 -0.00033550380059 -0.00024310491966 
-0.00092053629437 -0.0034787491936 -0.0033876140502 -0.0013985280167 -0.0024464147383 -0.00044825039022 -0.00033732401046 -0.00023381672595 9.7305498993e-05 
0.0003962570802 -4.0737373258e-05 -0.00076350989279 -1.4296364934e-05 -8.6482348662e-12 5.7735034918e-05 2.3586107066e-05 -6.28306153e-05 -0.00026179577866 
-0.00022306051941 -7.4533829985e-05 0.00033356245094 -8.9632195164e-05 -7.740021356e-05 0.0002578063122 -1.1474303028e-05 -5.9494232664e-06 -0.00083246527005 
3.2091395637e-06 7.8120328778e-05 -0.00028210181772 -0.00036909713002 -0.00032608800287 -1.1610373258e-05 -0.0002588591977 -2.5320292812e-05 -0.00010479693551 
0.00024741155643 7.7265501889e-05 -0.00010448864325 -0.00015922122639 5.435042006e-05 -0.00065096553734 -0.00017506714012 -5.3043331429e-05 -0.00015152766343 
0.00012124161325 -0.00010615651434 0.00026964961822 0.023492910875 -4.5089389981e-12 -0.0034095707883 -2.8828703921e-05 -5.4718351292e-05 0.00050474659572 