# vtk DataFile Version 4.1
vtk output
ASCII
DATASET UNSTRUCTURED_GRID
POINTS 1274 float
0.273681 -1.29448 -0.0534383 0.27349 -1.30217 0.0959536 0.279178 -1.29499 0.317728 
0.157791 -1.31603 -0.210995 0.298344 -1.29139 0.178231 0.411426 -1.23444 -0.0668159 
0.381109 -1.29115 0.32212 0.469704 -1.23549 0.492829 0.51218 -1.24355 -0.00851783 
0.637088 -1.2535 -0.00581916 0.538707 -1.34667 0.187553 0.640966 -1.22299 0.434162 
0.852363 -1.27272 -0.151166 0.843317 -1.25444 -0.0829444 0.65758 -1.29638 0.158139 
0.755467 -1.2758 0.265816 0.696176 -1.2702 0.21869 0.793445 -1.20811 -0.0449654 
0.637031 -1.20783 -0.0563035 0.67233 -1.34643 0.007826 0.71568 -1.19085 -0.082183 
0.690779 -1.30823 0.278096 0.391085 -1.2346 0.28198 0.615082 -1.27214 0.224833 
0.912666 -1.23676 -0.0761747 0.300907 -1.25051 0.128501 0.657472 -1.20805 0.363644 
0.813726 -1.1951 -0.113223 0.921101 -1.31398 -0.000215672 0.822345 -1.22944 0.0380091 
0.971452 -1.20866 -0.0147638 0.656938 -1.22801 0.0463811 0.557285 -1.21922 0.378495 
1.08244 -1.22311 -0.287925 1.03384 -1.24148 -0.141594 0.504128 -1.2216 0.28066 
0.789687 -1.27905 -0.012767 0.634844 -1.27413 0.285646 0.405161 -1.25089 0.137781 
0.95243 -1.20307 0.0598258 0.851262 -1.22727 -0.208353 0.798089 -1.2331 0.160199 
0.837931 -1.21215 0.108702 0.748468 -1.22107 0.215821 0.903115 -1.24347 -0.00483048 
0.985491 -1.23852 -0.236355 0.891708 -1.25258 0.291678 0.886082 -1.21799 0.23046 
0.451712 -1.29943 -0.306797 0.167737 -1.33267 0.280752 0.145363 -1.35901 -0.0654478 
0.0370368 -1.33527 0.173834 0.286122 -1.34237 0.471513 0.255717 -1.33812 0.385044 
0.239736 -1.31349 0.16519 0.379491 -1.35343 0.285027 0.153493 -1.34836 -0.272762 
0.359494 -1.41001 0.0557086 0.611642 -1.28937 -0.213134 0.217714 -1.35347 -0.221911 
0.399374 -1.34727 -0.151123 0.3714 -1.35536 0.40477 0.398771 -1.2931 0.394605 
0.277979 -1.34833 0.209006 0.213228 -1.33875 0.00568294 0.484984 -1.2664 -0.187323 
0.412935 -1.36078 -0.0236873 0.583295 -1.34515 0.299876 0.433018 -1.28259 -0.14263 
0.303954 -1.28411 0.24321 0.552601 -1.36017 -0.0191392 0.376524 -1.27376 0.19439 
0.331471 -1.29852 0.0616591 0.330272 -1.26182 0.44547 0.508699 -1.22762 -0.0836173 
0.623424 -1.4128 0.0997122 0.543572 -1.25136 -0.240558 0.21251 -1.28198 -0.175245 
0.568475 -1.3559 0.0418082 0.542354 -1.30106 -0.033816 0.327655 -1.26213 0.297953 
0.45099 -1.28857 0.450256 0.579676 -1.33516 0.469969 0.446531 -1.28106 0.264272 
0.511138 -1.29985 0.290802 0.451768 -1.36119 0.112072 0.616089 -1.30394 -0.0479797 
0.644106 -1.22755 -0.213943 0.972786 -1.28536 -0.284398 0.570547 -1.28659 0.172112 
0.474576 -1.28624 -0.250716 0.764485 -1.28928 0.343898 0.645375 -1.32736 0.220648 
0.577149 -1.23919 -0.054114 0.999397 -1.26669 -0.0441857 0.741648 -1.25512 -0.0613828 
0.68478 -1.29037 0.0493626 0.876717 -1.34925 0.162239 0.603243 -1.25476 0.0794975 
0.780186 -1.23222 0.387974 0.79041 -1.24152 0.464797 0.54563 -1.26317 0.232597 
0.825912 -1.35957 0.20758 0.621941 -1.22549 -0.144904 0.687885 -1.23278 -0.0334129 
0.553126 -1.24115 0.123535 0.732371 -1.23672 0.0210045 0.808427 -1.30049 0.177864 
0.82888 -1.25074 0.340893 0.681277 -1.26716 0.329668 0.809132 -1.22667 0.532537 
0.912738 -1.24755 -0.369476 0.769435 -1.31033 0.0490818 0.437527 -1.2561 0.192647 
0.72384 -1.22677 0.535002 1.16368 -1.22134 0.0115773 0.628812 -1.26644 0.529998 
0.734237 -1.22569 0.3176 0.704828 -1.24499 0.41568 0.578895 -1.24381 0.0150873 
0.958847 -1.29325 0.219134 1.10588 -1.23867 -0.16735 0.838761 -1.30533 0.0441335 
0.976697 -1.22621 -0.0922085 0.908046 -1.28984 0.0618419 0.616164 -1.23688 0.147236 
1.32157 -1.19727 0.525999 0.73876 -1.25654 0.160864 0.939715 -1.22561 0.194349 
0.951861 -1.20858 0.423075 1.2122 -1.26386 -0.183065 0.904969 -1.23196 0.0976031 
1.04478 -1.22618 -0.00813775 0.863899 -1.23351 0.171951 1.10015 -1.2585 -0.032658 
0.963255 -1.26329 0.0318511 0.0866299 -1.41341 -0.246728 0.285868 -1.36064 -0.213174 
0.430086 -1.40919 -0.397639 0.0351688 -1.35951 0.315749 0.213183 -1.32124 0.482542 
0.096573 -1.40799 0.156536 0.216678 -1.3441 -0.402017 0.500176 -1.31854 -0.348271 
0.087072 -1.35981 -0.381558 0.493575 -1.34759 0.459583 0.250952 -1.27905 0.529061 
0.147309 -1.35436 0.379554 0.240961 -1.41179 0.29783 0.0965648 -1.35827 -0.012747 
0.276921 -1.32027 -0.156358 0.0800648 -1.35879 -0.28905 0.471823 -1.35383 0.309822 
0.348532 -1.40768 -0.029183 0.129546 -1.34339 0.230459 0.2131 -1.33473 0.0980319 
0.219427 -1.29567 0.291522 0.32028 -1.29145 -0.294881 0.270896 -1.34801 0.0405321 
0.422317 -1.31823 0.166011 0.0823318 -1.29272 0.215223 0.515967 -1.30075 0.418943 
0.893022 -1.30025 0.533049 0.547154 -1.3559 0.420263 0.240626 -1.29494 0.228755 
0.318039 -1.35522 0.157095 0.318788 -1.35427 0.0927363 0.366834 -1.28853 -0.232274 
0.520292 -1.33316 -0.241299 0.492504 -1.29281 0.204161 0.548567 -1.22594 0.527673 
0.644445 -1.28717 0.408185 0.776622 -1.34067 0.462433 0.423498 -1.34421 0.228826 
0.676712 -1.41468 0.136521 0.589224 -1.22297 -0.399396 0.600971 -1.35842 0.188467 
0.854275 -1.22725 -0.316029 0.390681 -1.29515 -0.298371 0.828384 -1.29987 0.283792 
0.758963 -1.28955 0.419755 0.332554 -1.28438 -0.17193 0.571242 -1.27631 0.288588 
0.67011 -1.27298 -0.166586 0.490169 -1.24976 0.145403 0.879605 -1.29186 0.214345 
0.970221 -1.38751 0.0888259 0.535619 -1.28038 0.0565 0.995341 -1.25543 0.443757 
0.64871 -1.33018 0.341126 0.941805 -1.29614 -0.0630183 0.671374 -1.21096 -0.283844 
0.725511 -1.22913 -0.14523 0.791201 -1.30422 -0.0807522 0.821021 -1.34988 -0.0456812 
0.739911 -1.31843 0.177881 0.702433 -1.35513 0.138621 0.859603 -1.29909 -0.026309 
1.009 -1.24927 0.0864247 1.06218 -1.27504 0.0385015 0.912199 -1.25111 -0.139874 
0.786885 -1.28896 0.114807 1.10883 -1.28568 0.393282 1.00431 -1.24684 0.189128 
0.818662 -1.24345 0.228999 0.698349 -1.25832 0.111003 0.931223 -1.36173 0.215978 
0.857221 -1.28507 0.118822 1.19572 -1.36109 0.117282 0.947743 -1.35357 0.143886 
1.12381 -1.25921 -0.0982616 1.02643 -1.26103 0.275397 0.763009 -1.22461 0.0949874 
0.992848 -1.35488 0.196145 0.297592 -1.4153 -0.358896 0.19961 -1.37211 -0.327234 
0.0322034 -1.4135 -0.0346503 0.441264 -1.2807 0.531353 0.0339859 -1.41171 0.191308 
0.0880694 -1.32456 -0.107056 0.340207 -1.30688 -0.394474 0.0369042 -1.36207 0.0211665 
0.032648 -1.34519 0.488067 0.346338 -1.40639 0.19852 0.151573 -1.41314 0.444388 
0.323852 -1.34694 0.532516 0.0880172 -1.3951 0.227434 0.326542 -1.35889 -0.265539 
0.218126 -1.35086 -0.128882 0.247476 -1.41429 -0.200595 0.12469 -1.33754 0.15304 
0.311834 -1.29159 0.501952 0.0914464 -1.33709 -0.219906 1.00541 -1.41418 0.472976 
0.233989 -1.40735 0.202609 0.218341 -1.34182 -0.0600823 0.403399 -1.35841 -0.282341 
0.150884 -1.32363 -0.00109801 0.582358 -1.41374 0.215541 0.46891 -1.4131 0.144643 
0.452054 -1.28909 0.341123 0.273717 -1.357 0.3228 0.194133 -1.36245 0.157556 
0.311407 -1.34574 0.270514 0.802739 -1.4127 -0.226324 0.19015 -1.38823 0.264689 
0.356775 -1.34244 -0.0621048 0.161705 -1.30575 -0.120709 0.394453 -1.41526 -0.141233 
0.29332 -1.35437 -0.0873229 0.465242 -1.33992 0.395967 0.47908 -1.25506 0.394938 
0.297764 -1.35994 -0.0220853 0.358261 -1.34944 0.0163513 0.800966 -1.29774 -0.21225 
0.37886 -1.36167 0.155194 0.336203 -1.34526 -0.179613 0.352438 -1.29996 0.131936 
0.377614 -1.29361 0.256158 0.347285 -1.3327 0.211753 0.525902 -1.23596 0.436767 
0.447937 -1.29518 0.108824 0.734815 -1.25966 -0.210243 1.05804 -1.36705 -0.147607 
0.31005 -1.30422 0.00397382 0.443595 -1.30487 -0.0198491 0.836458 -1.41477 -0.140624 
0.613556 -1.36238 -0.011425 0.649935 -1.36308 0.275183 0.50133 -1.35082 0.244422 
0.518194 -1.26095 0.345296 1.14791 -1.3679 0.380174 0.628689 -1.369 -0.0746695 
1.12062 -1.28391 -0.219369 0.725299 -1.29704 -0.116966 0.853418 -1.32468 -0.107556 
0.686893 -1.36361 -0.0514489 0.746076 -1.34169 -0.00649516 0.897817 -1.3546 -0.0555426 
1.05016 -1.2361 0.467618 0.636007 -1.31481 0.0923208 0.8408 -1.41501 0.25383 
0.652752 -1.25828 -0.0946755 0.895503 -1.3538 0.0898986 1.09809 -1.31909 -0.00128541 
1.01078 -1.31129 0.00852503 0.813417 -1.37082 0.0466493 0.753234 -1.33965 0.102169 
0.695449 -1.29845 -0.0354582 1.05036 -1.34975 0.154843 0.854831 -1.41217 0.0915799 
1.18067 -1.23177 0.410046 0.994686 -1.29008 -0.105879 1.09741 -1.40835 0.172823 
0.96321 -1.37556 -0.0366062 0.971441 -1.31619 0.0849978 0.859066 -1.20966 0.455077 
0.0341698 -1.37725 -0.227829 0.0314946 -1.41421 -0.173613 0.0354919 -1.41021 0.467866 
0.0723735 -1.41424 0.308021 0.083777 -1.37126 0.528368 0.0998457 -1.41553 0.479797 
0.077059 -1.41064 -0.339191 0.166896 -1.39471 -0.39495 0.384464 -1.36052 -0.403686 
0.0336248 -1.41208 -0.285996 0.0512403 -1.41294 0.0665505 0.264619 -1.4091 0.470985 
0.0355725 -1.41055 0.36411 0.240329 -1.4087 0.370518 0.142477 -1.41182 0.527459 
0.301135 -1.35421 -0.332106 0.142983 -1.41429 -0.33146 0.145805 -1.41471 -0.269119 
0.640418 -1.41014 -0.320134 0.424273 -1.41293 -0.237012 0.115748 -1.41367 0.0603548 
0.0974978 -1.34389 0.42203 0.391986 -1.33181 0.529311 0.109646 -1.35187 0.315729 
0.500916 -1.4062 0.400594 0.174972 -1.37141 0.0532411 0.310301 -1.40789 -0.168358 
0.29254 -1.41419 0.089755 0.209755 -1.40974 -0.0930193 0.355005 -1.34894 0.469661 
0.316637 -1.32223 0.415508 0.291335 -1.40986 0.249618 0.713841 -1.35031 0.51872 
0.207006 -1.35176 0.332115 0.410712 -1.35014 0.349679 0.453586 -1.34852 -0.224109 
0.383488 -1.3558 -0.218971 0.0653987 -1.35873 0.108984 0.455269 -1.40706 -0.172954 
0.243045 -1.35271 0.267344 0.263497 -1.35817 0.128618 0.420347 -1.3539 0.450709 
0.336787 -1.32102 -0.122258 0.457174 -1.41043 0.0500152 0.621442 -1.28646 -0.382328 
0.523114 -1.29215 -0.290422 0.569872 -1.41475 0.0649898 0.518509 -1.28592 0.489769 
0.648238 -1.41098 0.225448 0.550229 -1.35131 -0.296787 0.456584 -1.41397 0.20907 
0.68055 -1.36149 0.394783 1.07266 -1.29153 -0.269853 0.462781 -1.28383 -0.0797558 
0.427704 -1.34133 -0.0857416 0.50184 -1.32629 0.0148823 0.438265 -1.34185 0.0377366 
0.529118 -1.33147 0.355517 0.571388 -1.28984 0.535691 0.942789 -1.25501 0.531368 
[...]
POINT_DATA 1274
FIELD FieldData 10
VELOCITY 3 1274 double
-1.9550675011e-05 -1.3837236331e-05 -0.00014263655498 -0.00019713690158 2.9232203879e-05 7.0492627548e-05 -0.000207075202 -3.2296128189e-05 0.00016643069597 
-4.1297868506e-05 1.085466554e-05 7.3073069017e-05 -0.00011243632162 -4.0969861047e-05 5.5867808342e-05 -6.0757674413e-05 7.4771711851e-05 0.00019180637925 
-0.0002560938599 -6.147291212e-05 6.9564457463e-06 -0.00024818845933 -2.1277043788e-05 -0.00012969404791 0.00058595617844 0.00018074355374 -0.0018895727962 
6.5992460324e-05 -0.00015161940503 -0.00015082268201 -0.00016528477871 5.6799084189e-05 2.4456471979e-05 -0.00017080317963 -0.00033267830529 -0.00014738618918 
-7.7567533521e-05 -9.4205856783e-05 3.0182900301e-05 -0.00010615592502 -8.5282465191e-06 -1.345272135e-05 -5.726235521e-05 1.1678889819e-07 6.2345635238e-05 
9.9223656509e-06 5.5128984011e-05 -9.945394681e-05 -3.4728830182e-05 9.1451657632e-05 4.2986704736e-06 -0.00028925929283 -0.00014559799058 -4.4719108281e-05 
-1.9478127533e-06 -0.00020874954145 -0.00018492251678 -3.7869953502e-05 2.8466335103e-05 9.4011752793e-05 0.00038749068239 -8.8499936841e-05 5.3267095002e-05 
4.5432048156e-05 -0.00010039748541 -0.00017975155895 9.2570793647e-05 -4.4203817083e-05 9.9692910154e-05 -9.2871883971e-05 -3.3814915375e-06 6.5614304193e-05 
-0.00011910600838 -0.0001137619011 0.00020350464813 -0.00011103708004 -1.1495530603e-05 8.0417700914e-05 -1.753774886e-05 -8.4250870396e-05 -5.3084846032e-05 
-0.00024514446184 -7.1517643911e-05 -2.3793990086e-05 -0.0001137293043 -6.7858889955e-05 5.8466298497e-05 -0.00049754621413 -9.1440700973e-05 4.6991590825e-05 
-0.00019214957157 -8.4522524672e-05 0.0001680491866 3.1004319569e-06 5.885228254e-05 -0.00026346402573 -0.00025906159416 -0.00013797670252 2.6889338115e-05 
5.2207705815e-05 -0.00017798600976 6.5978517118e-06 0.00012519225289 5.5864392932e-06 -9.0110224076e-05 0.00015509204119 -0.00019444837285 -9.673936836e-05 
-0.00012649333427 -0.00020017170853 -0.00018051013667 -4.8138438378e-05 -0.00018162303434 6.7720061935e-05 -1.1363093938e-05 -0.00015526259413 4.9173925246e-05 
0.00047026814953 -0.00029904048978 0.00032649798068 -8.7015747454e-05 -0.0002975928567 0.00010982177364 3.4226447237e-05 4.8244199501e-05 0.0001536917169 
-0.00018025722136 -8.8097499836e-06 -6.7520052811e-05 0.00010701663414 -2.7965488e-05 -0.00016616321961 -0.00021514895734 -1.1055910436e-05 0.00035014723376 
0.00016769148813 -0.00021647949989 0.00010129113509 -1.0132111898e-05 -0.00014987077633 5.6949443115e-05 -0.00047120654274 -5.331094586e-05 0.00015192235492 
-0.00020483599884 7.4772988914e-06 -6.4518038394e-05 -6.9957125813e-05 -6.0975221825e-05 -2.7440811988e-05 3.6659664563e-05 -8.1730010981e-05 -8.7268631134e-06 
8.5824977224e-06 -0.0004199045527 0.00012194151406 -0.00017575881201 -1.2728721315e-05 -8.5355891242e-05 -0.00017289020477 0.0001063035405 3.4164967273e-05 
-9.1831807279e-05 -0.0001007538334 0.00023360725333 -0.00011398045262 -3.3387153419e-05 -6.9736103355e-05 0.0001029922839 -1.0660642661e-05 4.565439239e-05 
-5.0260994204e-05 -5.2814635684e-07 1.6098474069e-05 -5.1690507595e-05 3.5018080203e-05 5.1695172516e-05 -7.5364122919e-05 -1.3546384781e-05 0.00012188957475 
-0.00016327311649 3.8403289506e-06 0.00019868775158 -0.00021472698101 -0.00011965116008 -5.8167506379e-05 -0.00029771206744 -6.1162351103e-05 3.6386778006e-05 
-5.7158983376e-06 -6.6307900642e-05 0.00014271818646 -0.00015585989101 -0.00022130193372 0.00022432599045 -5.7551404604e-05 -0.00016697177384 -1.7513585717e-05 
-0.00028046654347 7.102839012e-05 2.9853263531e-05 -7.2607366014e-05 1.5184936735e-06 3.1202107486e-05 -0.00012338059672 3.5440982046e-05 -4.0124410332e-05 
-0.00013918680898 -3.5482191202e-05 6.0450544011e-05 -0.00019531650792 6.1636507906e-05 0.00019131458464 -4.9246495823e-05 -5.8271936544e-05 2.9984687641e-05 
0.00070633095808 -0.00039188782723 -0.00033118527757 -0.00018738140064 5.0224894559e-05 -1.3096071917e-05 7.6118823695e-05 -0.00012494571124 -0.00021800050051 
-6.522538825e-05 8.8022365657e-06 8.5029300569e-05 -0.00023773613837 -0.00010825088098 6.5178158623e-05 4.8956819698e-05 -7.9082586812e-05 5.0868863352e-05 
1.2817723923e-05 5.4736143039e-05 0.00021605513016 0.0043335915721 0.00095815861748 0.00081200466149 -0.00025165152098 1.8678366931e-05 0.0001015395196 
-0.00025574682892 -9.6170018645e-05 -1.3321502158e-05 -0.00026784605843 -0.00017893357683 7.8178594645e-05 5.5606170271e-05 -9.9803043186e-05 1.5685472104e-05 
4.3105366565e-05 -0.00030276641964 -0.00019679165027 -0.00014966513511 -6.2171468397e-05 -0.00013146130294 0.00024444116499 -0.00021408115001 -0.00016311248874 
0.00028202099357 -0.00015042115162 8.9110212116e-05 7.5085167938e-05 -0.00013694029228 9.0189799252e-05 0.00018825575144 -0.00015852720095 -0.00013393933862 
-0.00023423510224 5.1915782594e-05 3.7719927634e-06 -0.00013739525536 -6.9731060935e-05 -1.6094792469e-05 -0.00012021501445 -9.7297270029e-06 -1.40835845e-05 
6.1337348781e-05 -0.00031735297409 -0.00025126311272 8.2249943118e-06 1.1693413962e-05 0.00012817525075 -3.5776137312e-05 -0.00036000788787 -0.00030128693232 
-2.1792552209e-05 3.64222819e-05 -5.1762466413e-05 0.00014218070656 -6.3673997396e-05 0.00011882150057 8.521269663e-05 -1.8701216466e-06 -0.00018899053812 
-1.953846227e-05 -6.6366827437e-06 -5.9650156439e-05 -0.00014976033281 5.6358051338e-05 4.0440198066e-05 0.00010973645417 -0.00015129586898 -0.0002039256799 
-0.0001931370989 9.9021749649e-05 0.00012808424233 3.4442605846e-05 -0.00023137960782 -0.0001023608912 2.104539273e-05 -0.00014698742753 -0.00021587336887 
4.7695824592e-05 -0.00026663571126 -0.00017719001635 -3.3698284782e-05 1.7359284651e-05 -0.0001674900229 5.995942066e-05 -3.9981261156e-05 -0.00010329716279 
4.9854076994e-05 -0.00021261344306 6.6149240934e-05 3.1226775793e-05 -2.0397309944e-05 -0.00014626232185 4.0232767101e-05 5.060867423e-06 1.1908858527e-05 
0.00012006150347 -6.6562896763e-05 9.2737472607e-05 -0.00011941398035 -0.00035430652247 8.6293465483e-05 -4.6934191982e-05 -5.1673430733e-05 7.3112047901e-05 
-0.00011156079085 -5.8972682344e-05 -2.3481730684e-05 0.00010220430399 -0.00013071833725 -0.00011218074294 -0.0001710615541 -1.3380629369e-05 -0.00015439858562 
3.8351422703e-05 1.7084640489e-05 -6.8799048402e-06 1.1584941814e-05 0.00010211930452 2.6961229117e-06 -9.1301377183e-06 -0.00035821942239 -0.00024790843822 
0.00014449058839 -0.0003654618208 -0.00019292080589 0.00010508279476 4.9269369026e-05 -0.00012696747005 -0.00018031870934 -1.4626603323e-05 -5.5381629056e-05 
-0.0001345172924 -0.00011023728009 0.00011045501099 -0.0001533818305 -4.082690954e-05 6.8036307663e-05 -4.742762833e-05 2.8658329825e-05 -0.00018861887536 
-8.5599244368e-06 -3.7724818865e-05 -4.652329664e-05 0.00011903177771 -0.00010548498726 -0.00012496108365 -0.00036150530373 -0.00021654258566 0.00039323559016 
-0.00023647530679 -0.00014253922768 6.0782984106e-05 0.00020325937074 -0.00025509774099 -0.0001512670472 -8.2576237995e-05 6.7872989141e-05 -0.00014570738298 
-0.00018724021216 -0.00024932832441 -9.458472647e-05 4.0359336218e-05 -5.8513376742e-05 -2.2395987786e-05 -0.00025661505592 -0.00016493629167 -0.0002471510878 
-6.610789028e-05 -0.00024463183127 9.45086207e-06 -1.057572276e-05 -2.0756043672e-06 2.3120305997e-05 -1.5703782976e-05 3.7080103993e-05 -4.9471473914e-05 
5.3833379538e-05 1.9603745354e-06 -3.5122419975e-05 -1.0185710077e-05 1.9123550687e-05 0.00021632137142 -6.2753639433e-05 -5.1333467071e-05 -2.5579954084e-05 
-9.8941751309e-05 1.3081596516e-05 -0.00015187466457 2.0505734619e-05 8.3744955767e-06 -4.3356710625e-06 -0.00018219094861 -1.7638853584e-05 -2.6928689258e-05 
-1.8753642435e-05 9.3600566006e-06 -2.4929450599e-05 -3.6859774466e-05 5.528508936e-05 -3.5091853829e-05 -6.9916709691e-05 -3.4836939397e-05 -8.9584393825e-06 
0.00012191713405 1.623992507e-07 4.6679187858e-05 -5.4183705951e-05 1.489634234e-05 3.71967977e-05 -8.3338036799e-05 -5.3123338395e-05 -0.00012380990788 
-5.6397995285e-05 -0.00019526220392 0.00015616860683 -1.6247017011e-05 8.6351408475e-06 -3.8683758063e-05 -0.00021487500617 -6.483428073e-07 -6.3403971657e-05 
-7.4271034462e-05 0.00014788209588 0.00011085858305 -0.00011128160913 3.8861566972e-05 -4.2910120131e-05 -9.6617323966e-05 -7.4753717054e-05 -5.8733245288e-05 
-0.00014805504326 1.0400361274e-05 2.9063911333e-05 -0.00020103133579 4.8665787547e-07 2.9624552401e-05 3.2963751526e-05 -4.395549866e-05 3.7311504461e-05 
-3.7807933625e-05 1.6420425856e-06 -8.9803724526e-05 -0.00017476804039 -5.7834263276e-05 -4.4685269504e-05 0.00031753171041 -0.0001184005992 -2.7498002475e-05 
-0.00013787592705 6.9425509704e-06 0.00012127808383 0.00014280456471 -0.00010429535771 -0.00010560014765 -0.00013593659755 -2.9705903748e-05 1.823849234e-05 
-7.3856330827e-05 4.5752542581e-05 3.8279993215e-05 -0.00012708744616 4.3965454333e-05 0.00013660321191 -0.0002111820529 -4.4492164013e-05 2.327346834e-05 
-3.4620818031e-05 -0.00018614428219 4.1038049932e-05 -3.3189561961e-05 -9.51771641e-06 5.0011924181e-05 -5.816845606e-05 -3.5954375842e-05 -4.0684763904e-07 
-9.6111285147e-05 9.8597130988e-05 -2.1112823844e-05 -0.00018218478097 7.6827117505e-05 0.00019493140061 -0.00028216657378 6.8569336507e-05 -8.2648096895e-05 
-0.00013305742589 -1.879069299e-05 2.0623399775e-05 7.2201559792e-05 -0.00028522208546 -3.8883033719e-06 -0.00014686012198 -8.0591234183e-06 6.5115230082e-05 
5.3149785225e-05 -0.00018363486576 0.00015408729147 -0.00018018472893 -1.4449845304e-05 7.5334601322e-05 -8.3374704874e-05 -9.5285920379e-05 9.8509490926e-05 
-2.6529090825e-05 6.471729767e-05 -7.5652952814e-05 -0.00010606843955 1.2031200559e-05 0.00010053840727 -7.7218212525e-05 -5.5594726737e-05 -8.7598120607e-05 
-2.016630152e-05 -0.00033671114693 9.930039181e-05 9.8933273606e-05 -0.00013973193936 -4.4948399688e-05 0.00013095576996 5.6842993454e-06 7.5665160666e-05 
-7.110623167e-05 0.00015165315996 7.0832250599e-05 -5.7580178947e-06 -2.3757200782e-05 2.3004842297e-05 0.00021614397745 -0.00010127814473 -5.9132324947e-05 
3.4925534291e-05 1.3375146097e-05 2.0242691742e-05 1.9969235795e-05 -6.0966368013e-05 0.00014256970252 -0.00016930362181 -0.0002051414093 -0.00016490359834 
-0.0001683678915 -5.9908298393e-05 -6.0527600208e-05 -7.9286752139e-05 -5.494904545e-05 -1.8784830772e-05 0.0001127005477 -6.7509526568e-05 -0.00014073137339 
-9.0598044734e-07 -7.9845583019e-05 -8.9621528402e-05 -0.00028205830596 -3.9409833222e-05 0.00018095422486 -2.1337433573e-05 -2.59996374e-05 0.00011785908582 
0.00015998635184 -9.6664481024e-06 -0.00019247267185 7.6013154149e-05 -0.00018768021836 -9.5858430692e-05 -6.7230745718e-05 -0.00010276413246 0.00020890463664 
-5.1264270369e-05 -0.00015897284765 -0.000135820502 -0.00028287263648 -0.00072249385444 -0.00063088944028 8.8683980972e-05 -9.029196664e-05 0.0001639711751 
4.5594244171e-05 -6.495253214e-05 1.0774776666e-05 -8.5178822979e-05 -4.5926365153e-05 2.5893323583e-05 -0.0002148796061 -0.00023953535923 -0.00032294889583 
-0.00012573846037 4.2624536684e-05 -3.3376917277e-05 -7.3295320901e-06 -8.372780299e-05 5.4350033227e-05 8.4720499773e-05 0.00010751139112 0.00014531753352 
1.7286262572e-05 -0.00018649847343 -0.00015857611272 -1.564304891e-05 -0.00013207455684 5.5717532892e-05 -4.3531568301e-05 -0.00017792142384 -9.780138965e-05 
-0.00015160254879 -0.00068444339131 -0.00024541176831 0.0001839148957 0.00012394733564 -0.00012758396758 1.9138390294e-05 5.0844172158e-05 1.1945180268e-05 
1.2420114351e-05 -2.0790588747e-05 -5.4698767386e-05 -8.1608259718e-05 -2.1743204132e-06 -1.7329429468e-05 1.6290957396e-05 -0.00026234595137 0.00016644282579 
3.9128631776e-05 -0.00015056067049 2.0640939562e-06 -1.4232732499e-05 -2.8125781698e-05 9.7005398494e-06 1.6506409405e-05 1.1739365823e-05 4.3461365233e-05 
2.3445262124e-07 5.0045515904e-05 -0.00017098563891 -0.00012730806605 -1.9604654511e-05 1.2302908799e-05 -0.00030303426125 0.00012854936972 -0.00020438439123 
-0.00010438362884 -2.2569063244e-05 3.0691265176e-05 -3.3139604655e-05 9.0205722204e-05 1.8640754675e-05 -2.671480432e-05 -1.0216545918e-05 -2.1054765791e-05 
-6.6020416608e-05 -0.00010655573317 0.00015692585097 -0.00061799765897 7.3975390838e-12 0.00080473983803 -0.00016004983763 4.3474062487e-05 5.717445825e-05 
-7.5452318211e-05 -4.8960247691e-05 -4.1730963048e-05 -6.0920687935e-05 0.00017351417748 -7.1097963428e-05 -9.4570624531e-05 4.1334866043e-07 5.2266914965e-05 
-0.0001406562196 1.6120168637e-05 -7.4092679545e-05 0.00011778476674 -0.00015831481436 0.00016451040989 -3.8736543028e-05 3.1616201697e-05 -2.2908609351e-05 
-7.4683875645e-05 -8.9685617084e-05 -4.7628094302e-05 -2.680024309e-05 2.6431878355e-05 0.0001475089587 2.9562447354e-05 1.9838377437e-06 0.00012809278896 
-0.0003286816476 -2.567176994e-05 4.5636195448e-05 -0.00013441615225 -5.5276707939e-05 5.4991948421e-05 -0.00017858019372 1.3701461304e-05 -2.4093506746e-05 
-0.00013131970137 -3.6344979971e-05 6.8191064371e-05 5.6157591898e-05 -1.2727935262e-05 -0.00023021473115 -1.8052799848e-05 -0.00014792226887 2.7980279809e-05 
0.00019229523363 -5.9527565909e-05 4.6285217643e-06 1.6670729415e-05 1.3147627534e-05 7.053715172e-05 -5.2678443065e-05 -1.7091214937e-06 0.00011923002597 
6.0854117681e-05 -7.9432201656e-05 -8.2305300658e-06 -0.00022003524242 -7.4631371653e-05 -2.8323422332e-05 -5.3857073044e-05 -0.00020050757896 1.1078516072e-05 
-0.00014280016505 -5.2069808755e-05 4.0023232122e-05 -0.00022586163632 -1.7259702973e-05 1.8667173078e-05 5.8779262791e-05 -0.00015666588226 -0.00010194118055 
-0.00010270155398 1.3288307442e-05 1.2556488424e-05 -1.5786250924e-05 0.00017056729371 -0.00010248085874 -9.5472466021e-05 -1.234294513e-05 4.1120459789e-05 
-4.0262860182e-05 2.911113597e-05 8.8193165099e-06 -5.4660834728e-05 -2.6686218894e-05 5.1479127644e-05 -0.00017164958603 -8.9255009084e-05 7.9977391864e-05 
2.404983303e-05 8.9796401749e-07 -3.21821104e-05 -9.6391214555e-05 -0.00030550656173 6.8523164049e-05 -3.1654888973e-05 -7.4510088698e-05 -1.8211720102e-05 
-0.00018943361731 2.099634264e-05 -2.6846556662e-05 4.8286186316e-05 -0.00013125213029 -5.8270617491e-05 -2.3064906622e-05 2.0722437909e-06 4.2587958468e-05 
-8.5872074414e-05 -7.98641468e-05 -8.7258377273e-05 -2.86240536e-05 -6.9498880959e-05 0.00013915919216 -0.00020605421123 -7.4555339949e-05 -5.0085778205e-06 
-0.00011035512576 -0.00019113400652 -2.3918883287e-05 8.1436550507e-05 4.0218490725e-05 4.1160276259e-05 -8.1104598836e-05 -6.4308143882e-05 -6.9560293353e-06 
9.1034910962e-05 -9.4750044855e-05 -0.00014266288391 0.00010886186619 -0.00022212134115 -0.00043935976816 -0.00015687167515 -6.2440496158e-05 0.00014097325034 
6.6589008897e-06 3.8603296404e-05 2.7066459128e-05 -0.00018150926316 -0.00012795304412 -1.9451028539e-06 1.3385309261e-05 -5.2975874899e-06 -6.4442521406e-06 
0.00011273356614 1.9412238653e-05 7.0662854171e-05 0.00010182516469 -4.8083164863e-06 9.1300334003e-06 -0.00021261502716 -4.0246876106e-06 -0.00017159303745 
5.4120473127e-05 -0.00023346231099 -0.00011856153533 -0.00014592745516 -2.309400983e-05 3.3715155176e-06 -1.3792915916e-05 -0.00030069156584 -0.00023110967457 
1.5073986706e-05 -0.00012884747523 -5.4584869443e-05 0.00020361415006 -0.00014839110632 4.7686528964e-05 -0.00021251061914 -6.547719041e-05 0.00024408797309 
-0.0001836502147 -0.00013717255943 -0.00017552142616 -0.00010223756781 8.1954796374e-05 -0.00012568270085 -2.9481080969e-05 1.4288246485e-05 0.00017853808116 
0.00017053812916 -0.00024743430901 -2.9383470508e-05 2.1916490635e-05 -0.00010334092 0.00017463760854 -0.00031732006798 -5.4665031492e-05 -0.00028907799757 
-0.00016624025938 -6.9945921585e-05 0.00014980581573 -9.4484598922e-05 0.00013679887527 1.7086908677e-05 -0.00013559782878 -0.00010539120056 -0.00025528001688 
9.269928176e-06 -3.8926192858e-05 -0.00020802178098 -0.00014064502759 0.00018044416253 -7.6140525493e-05 -1.5696569334e-06 -2.1802134137e-05 -0.00013356590795 
-5.3744686453e-05 3.5150292838e-12 0.00021754223253 -0.0001998208002 0.00010708140431 -3.6615439468e-05 0.00014162782573 2.3794314253e-05 0.00035307348396 
7.9355381698e-05 3.6772755008e-05 -0.00011901700461 -1.9662202319e-05 3.4794951569e-05 1.6956476171e-06 1.0495635542e-05 -1.2815538103e-05 -3.2294000711e-06 
2.6756637391e-05 1.3169189987e-05 -4.7388569539e-05 -2.1816470217e-05 -1.7768809668e-05 -1.8770816424e-05 -0.00021372104167 3.2991220366e-05 6.1218710696e-05 
3.8858980301e-05 5.7391082141e-07 0.00017987884588 0.00012904887597 1.3432391903e-05 7.6699174598e-05 -0.00021115219395 -8.8143619248e-07 0.00028454974002 
-0.00021611530778 -5.1586708794e-05 9.8627048134e-05 6.5816183659e-06 -9.1784536939e-05 -2.618300436e-05 -8.8652732004e-05 6.8652595906e-05 4.0979449224e-05 
3.8189313009e-05 -1.3141991325e-05 0.00010963998616 -3.3982922951e-05 2.744510569e-06 3.3033017346e-05 -0.00014185155912 1.1837875337e-06 -0.00010237985202 
7.5321662554e-06 4.0347006413e-05 -6.5900256411e-05 -8.9221859387e-05 -5.8141667036e-06 -1.0041506587e-05 -1.0462349866e-05 1.3833290812e-05 0.00012135243306 
3.1024994994e-05 -6.0787737645e-06 -0.00024283228181 -8.667662953e-05 -3.2526349417e-05 -0.00012889071257 -1.6908336284e-05 6.2936654742e-05 -4.1573515647e-05 
5.0668868454e-05 -1.742704234e-05 4.5636291749e-07 -9.2342421068e-05 -0.0001999222858 1.4096649232e-05 -0.00016531994323 -4.8459218567e-05 9.4328626463e-05 
-7.7667495873e-05 -5.5685511091e-06 2.6347751532e-05 -5.945588496e-05 -9.524888456e-06 5.7771449044e-05 -5.1734223451e-05 2.4055180347e-05 3.2896483263e-05 
-0.00010186981123 1.0108832282e-05 4.9302875139e-05 -0.00030514579299 -4.7473161865e-05 -4.2131876202e-05 -5.673563283e-05 -2.1354821509e-05 2.5272706585e-05 
8.1074014741e-05 3.1512849899e-05 9.4723858004e-05 -8.7906307724e-05 3.9033211006e-05 -6.2027204569e-05 -0.0001172131341 3.7048990564e-05 8.2783208124e-05 
-0.00017868539283 5.9475862517e-06 -1.6644272161e-05 -6.5420459129e-05 7.4892697862e-07 4.5221692707e-05 -0.00017631159574 -7.4906658569e-05 0.00012024389953 
5.7925763023e-05 -7.2687588319e-05 4.4580778045e-05 -0.00018843433987 -0.00017761639165 0.00019965952132 -1.6480564801e-05 -0.00035252876951 -8.0934343898e-05 
-0.00025113952025 -3.2063878881e-05 -1.3736202753e-05 0.00010100807018 -2.5734459575e-05 -6.5718762362e-05 -0.00020361893551 -3.3210065567e-05 0.00014434467829 
-0.00031727174382 4.704597243e-05 0.0001297798986 -3.3181523681e-05 2.2040591743e-05 -6.4652773572e-05 -5.5927601177e-05 -4.6182893306e-05 -5.9992832304e-05 
-0.00018791744624 2.4443437032e-05 7.7234181501e-05 -4.7188731326e-05 -0.00016570598967 2.8933681316e-05 -0.00014434355828 9.3111476276e-05 -3.4228124294e-05 
-0.00023579531604 3.2187212121e-05 0.00020478660355 -4.3048468865e-06 2.3218680897e-05 -4.0561318323e-05 -4.0336265879e-05 4.680273897e-05 9.0213854944e-06 
-0.00019904462706 -0.00022558802024 -7.7662780429e-05 -0.00014023888939 -5.903499235e-05 -5.0934254744e-06 -2.1772855022e-05 -0.00018360174397 -1.7438872297e-05 
-8.7309048243e-05 -5.797851255e-06 3.679706659e-05 -0.0001372204047 -6.8855923283e-05 -3.9723256225e-06 0.0024090210541 -0.00071845356735 -0.00011827347643 
0.00010342761334 -0.00019999009449 -0.00036994871986 -0.00023026808599 -0.00030868590145 -0.00028041871084 -0.00011885358628 1.0736842932e-05 -1.1599595992e-05 
0.0011440305053 -0.00081312403584 -0.0027657629117 -0.00011126941303 1.8831008521e-12 4.9845776737e-05 3.1995179993e-05 -7.0073768597e-05 -0.00022817561282 
-2.7136064427e-05 0.00018039293077 2.5710162482e-05 -0.00027714314424 -8.2466186088e-05 0.00012356194667 -1.9083771419e-05 1.6362907877e-05 -0.00011390359723 
-9.2696763124e-05 -4.3175510824e-05 0.00017626119097 -0.00017649047354 -0.00017643743913 -1.1884590104e-05 -0.00010401554301 -4.8522302412e-05 2.6654740502e-05 
0.00020530154097 4.5435999056e-05 -7.8682937692e-05 -1.3392140091e-05 4.7123271592e-05 -2.2371172741e-05 -0.00011669558333 3.4647959164e-05 -3.7445018032e-05 