# vtk DataFile Version 4.1
vtk output
ASCII
DATASET UNSTRUCTURED_GRID
POINTS 1274 float
0.732133 -0.89476 -0.000105602 0.71287 -0.632512 0.0957886 0.782376 -1.14593 0.273138 
0.749791 -1.19595 0.0373117 0.73008 0.0118304 0.0323202 0.774373 -0.204589 0.0770213 
0.814515 -0.970656 0.225744 0.793164 -0.394569 0.30234 0.709305 0.0791952 0.0413944 
0.724634 0.0204652 0.0987693 0.811572 -0.65017 0.213952 0.756454 -0.0777737 0.267031 
0.650896 0.203189 0.0319687 0.630815 0.271108 0.039262 0.687853 0.133991 0.14534 
0.711777 0.0745625 0.206396 0.637188 0.248792 0.207205 0.60066 0.342997 0.0387698 
0.667461 0.1585 0.075197 0.830364 -0.0740191 0.104999 0.644182 0.238622 0.132089 
0.776645 0.0361475 0.20721 0.604484 0.323573 0.265121 0.678411 0.136781 0.217156 
0.567972 0.406398 0.0341502 0.657563 0.187481 0.183687 0.580666 0.394085 0.260297 
0.540335 0.476175 0.0336653 0.686001 0.321118 0.0988427 0.614958 0.30859 0.106807 
0.605386 0.470029 0.0636297 0.608916 0.302114 0.176694 0.601749 0.365133 0.189739 
0.663339 0.462074 0.101472 0.735153 0.36361 0.0474436 0.589195 0.388192 0.108912 
0.757926 0.310516 0.105739 0.563014 0.416327 0.175329 0.654338 0.315596 0.219229 
0.523618 0.51855 0.0827967 0.636553 0.408622 0.0359863 0.653565 0.353071 0.147855 
0.541795 0.477765 0.193202 0.548067 0.461325 0.264839 0.551801 0.46264 0.119035 
0.702806 0.437797 0.0529194 0.524905 0.529935 0.245212 0.519376 0.519212 0.146657 
0.754849 -1.09294 -0.0393262 0.43098 -1.32207 0.278251 0.429313 -1.37169 0.0121058 
0.424118 -1.3534 0.216536 0.576662 -1.34913 0.430176 0.494634 -1.37613 0.400895 
0.678778 -1.3048 0.193851 0.813134 -1.19926 0.206618 0.550094 -1.35362 -0.195807 
0.705414 -1.37388 0.090385 0.828552 -0.396637 0.0164416 0.642478 -1.34788 -0.115386 
0.751543 -1.354 -0.0615214 0.722957 -1.30571 0.392597 0.808094 -1.19712 0.314063 
0.757421 -1.29006 0.206446 0.778322 -1.23487 0.0811064 0.760707 -0.135742 0.0346752 
0.843711 -0.921552 0.0853497 0.891612 -0.740775 0.209357 0.838439 -1.33611 0.0384758 
0.793131 -0.661023 0.28496 0.804016 -0.385693 0.119871 0.761824 -0.266431 0.218885 
0.776657 -0.673777 0.165165 0.638607 -1.28831 0.342466 0.828267 -0.511119 0.126352 
0.896631 -0.82291 0.140541 0.77231 -0.0646597 0.0394866 0.756281 -0.804882 -0.00345005 
0.84967 -0.449653 0.153249 0.759819 -0.0855274 0.102445 0.723068 0.0234765 0.26973 
0.871641 -0.654854 0.286255 0.87795 -1.21701 0.309773 0.891303 -0.954333 0.236583 
0.752566 -0.428116 0.225315 0.859715 -0.849794 0.230932 0.789931 0.00899323 0.0753179 
0.845328 0.0112333 0.0319583 0.902751 -0.412934 0.0137987 0.762934 -0.066509 0.169042 
0.876962 -0.486018 0.0613781 0.800973 -0.0225444 0.247273 0.737276 -0.0151887 0.218369 
0.726627 0.153215 0.0373644 0.684223 0.318907 0.032595 0.759189 0.215606 0.0331317 
0.721185 0.18931 0.10278 0.769147 0.125974 0.19971 0.739899 0.0781656 0.131919 
0.722658 0.125158 0.265524 0.658781 0.201281 0.261476 0.790471 0.0562634 0.268157 
0.823979 0.0840222 0.195561 0.700325 0.244384 0.0324361 0.700579 0.256438 0.0945163 
0.761211 0.127723 0.0902742 0.695949 0.286158 0.167753 0.726839 0.186897 0.218758 
0.724139 0.244501 0.264236 0.661783 0.272123 0.267487 0.792795 0.134265 0.266607 
0.808296 0.332674 0.0405875 0.780823 0.237739 0.0889035 0.743907 0.243634 0.138054 
0.647838 0.372947 0.26665 0.82896 0.405986 0.149114 0.778925 0.348099 0.267884 
0.740457 0.302989 0.226236 0.714327 0.368771 0.264216 0.776639 0.286584 0.170764 
0.675619 0.393558 0.204098 0.893556 0.352615 0.0357012 0.831623 0.284176 0.102991 
0.770069 0.433287 0.0342143 0.671319 0.387114 0.0929762 0.72006 0.353194 0.150959 
0.667259 0.447749 0.260951 0.746169 0.375564 0.205517 0.727451 0.446052 0.213375 
0.763809 0.41777 0.26612 0.865655 0.418925 0.0362753 0.637698 0.431534 0.153338 
0.79709 0.430363 0.204287 0.611211 0.442944 0.214666 0.763693 0.402828 0.13464 
0.70506 0.42991 0.143898 0.385349 -1.36586 -0.166439 0.74205 -1.28408 -0.077468 
0.582363 -1.40919 -0.397577 0.230146 -1.33566 0.269395 0.520604 -1.35399 0.473062 
0.29746 -1.40799 0.181938 0.483149 -1.35858 -0.313278 0.733792 -1.30472 -0.33512 
0.512402 -1.31548 -0.120954 0.811028 -1.29303 0.429193 0.59376 -1.27173 0.406382 
0.374339 -1.34563 0.300404 0.48796 -1.41179 0.340462 0.404854 -1.35729 0.124313 
0.681073 -1.29761 -0.0392041 0.448696 -1.35432 -0.137583 0.836914 -1.27198 0.301167 
0.668909 -1.40768 0.0323589 0.491059 -1.28924 0.26348 0.653426 -1.34439 0.127698 
0.767365 -1.27662 0.274021 0.840237 -1.16279 0.0181193 0.703078 -1.2954 0.12979 
0.85692 -0.923436 0.172057 0.792618 -1.17754 0.136744 0.885713 -1.06331 0.281566 
0.961305 -1.21757 0.46222 0.869803 -1.30691 0.39815 0.797582 -1.09711 0.178078 
0.857173 -1.06147 0.161454 0.772904 -1.27432 0.137984 0.819149 -0.751698 0.0279538 
0.781977 -0.67573 -0.0164096 0.848382 -0.539895 0.221838 0.778998 -0.309299 0.287743 
0.864502 -0.398134 0.275763 0.765257 -0.164801 0.245808 0.871287 -1.23721 0.225417 
0.948244 -0.834543 0.176421 0.82757 -0.240183 0.0348019 0.888692 -0.596112 0.181648 
0.84468 -0.151593 0.0278638 0.779276 0.0685475 0.031545 0.856459 0.0320394 0.260433 
0.854703 0.106521 0.265547 0.813823 -0.327931 0.147253 0.735723 0.00694963 0.159552 
0.806415 0.135207 0.0386609 0.786547 -0.189853 0.164513 0.796144 0.215176 0.200287 
0.77528 0.170435 0.143998 0.804062 -0.00498835 0.149297 0.784307 0.27295 0.266411 
0.815687 -0.1243 0.211975 0.74746 0.292171 0.0347704 0.86507 0.288768 0.0335715 
0.873426 0.169451 0.0359177 0.822386 0.234644 0.0329254 0.826268 0.189368 0.0793676 
0.803209 0.109209 0.139401 0.839219 -0.0494424 0.193004 0.792352 0.351756 0.16492 
0.908348 0.398693 0.108422 0.954799 0.352427 0.0816883 0.855406 0.351504 0.115155 
0.816278 0.217412 0.133761 0.864537 0.253569 0.239592 0.954643 0.401108 0.189132 
0.84574 0.383365 0.260249 0.841306 0.264638 0.17192 0.835945 0.149599 0.212855 
0.826542 0.31331 0.225433 0.981706 0.228758 0.142334 0.981075 0.303132 0.154456 
0.811133 0.3972 0.0827013 0.944689 0.339485 0.199651 0.877086 0.366035 0.18513 
0.939688 0.273775 0.223287 0.47161 -1.41529 -0.336977 0.425848 -1.40585 -0.272497 
0.239097 -1.4135 0.0532221 0.762936 -1.26182 0.529431 0.0347227 -1.41171 0.206716 
0.372621 -1.34737 -0.0395342 0.555816 -1.28133 -0.373744 0.270317 -1.35008 0.08301 
0.261566 -1.34549 0.533198 0.640376 -1.40639 0.193702 0.293737 -1.41314 0.431315 
0.602945 -1.3565 0.532516 0.33394 -1.36357 0.231606 0.678698 -1.35611 -0.177449 
0.572413 -1.34228 -0.130297 0.486854 -1.41429 -0.120542 0.499085 -1.34475 0.218918 
0.616428 -1.26647 0.470854 0.222279 -1.40947 -0.0579078 1.00773 -1.41364 0.340383 
0.483145 -1.40735 0.260044 0.795257 -1.28117 0.0372523 0.74015 -1.33238 -0.154423 
0.571204 -1.28439 0.0773859 0.866567 -1.36155 0.171347 0.776454 -1.40785 0.157268 
0.867401 -1.15591 0.256849 0.611161 -1.3455 0.318792 0.564427 -1.30865 0.224097 
0.748601 -1.34917 0.246743 0.949515 -1.40356 -0.0505169 0.443497 -1.3766 0.308143 
0.840672 -1.2616 0.096955 0.705469 -1.31984 0.0390178 0.671569 -1.36443 -0.0535215 
0.771024 -1.34851 0.0303954 0.828634 -1.33039 0.345467 0.872293 -0.554226 0.285112 
0.786988 -1.32217 0.0912442 0.867655 -1.00203 0.122993 0.896752 -0.274369 0.0398694 
0.852784 -1.21102 0.138464 0.752642 -1.30425 -0.0127611 0.882899 -1.15277 0.163429 
0.863364 -1.10116 0.210052 0.804756 -1.34781 0.204103 0.793035 -0.229703 0.265179 
0.817861 -0.399908 0.211146 0.846004 -0.0696767 0.0362736 0.928493 -0.374052 0.0579362 
0.805276 -0.667289 0.10738 0.89398 -0.617932 0.103901 0.852365 -0.346117 0.0733823 
0.846115 -0.286889 0.0889271 0.855607 -0.20848 0.17977 0.933756 -1.11029 0.224317 
0.829199 -0.264988 0.217734 0.930948 -0.631046 0.215708 0.887073 -0.432055 0.10212 
0.9374 0.298205 0.0301613 0.860404 0.0797551 0.0383617 0.915997 0.232857 0.047568 
0.828206 -0.167444 0.116597 0.873345 0.0132803 0.0952797 0.890746 -0.108635 0.135254 
0.818663 0.220363 0.267978 0.8552 0.0318806 0.17986 0.88254 -0.145081 0.200661 
0.852808 0.125328 0.0953832 0.881947 0.203952 0.117076 0.968492 0.269053 0.0834392 
0.903962 0.30553 0.0906236 0.838814 0.162063 0.148863 0.903371 -0.00168362 0.205392 
0.932214 0.0705878 0.119751 0.884358 0.202598 0.193914 0.87421 0.0924428 0.156117 
0.92179 0.38229 0.261814 0.98427 0.220472 0.0339673 0.9451 0.157064 0.179109 
0.947509 0.184977 0.105269 0.906962 0.292001 0.164967 0.895911 0.310954 0.261998 
0.238597 -1.41153 -0.1321 0.0315439 -1.41304 -0.0588196 0.123877 -1.41021 0.460874 
0.238852 -1.41424 0.276907 0.151555 -1.40822 0.528366 0.199573 -1.41552 0.481173 
0.12964 -1.41063 -0.2661 0.368399 -1.4065 -0.326027 0.564916 -1.3448 -0.403632 
0.0347435 -1.39254 -0.258018 0.217939 -1.41294 0.145756 0.473684 -1.4091 0.462769 
0.203358 -1.41055 0.351581 0.422295 -1.40866 0.406645 0.256786 -1.41182 0.531621 
0.626323 -1.34513 -0.28195 0.335304 -1.38069 -0.267742 0.361178 -1.4147 -0.222225 
0.792012 -1.41013 -0.236432 0.633406 -1.41048 -0.193791 0.341654 -1.41367 0.12833 
0.386373 -1.359 0.375211 0.655923 -1.34027 0.489953 0.310749 -1.36165 0.335016 
0.723924 -1.4062 0.387591 0.496299 -1.3566 0.128199 0.555595 -1.40789 -0.105747 
0.587933 -1.41419 0.114619 0.509575 -1.34486 0.0239766 0.688807 -1.35248 0.426797 
0.630999 -1.33136 0.395508 0.605727 -1.38016 0.259076 0.868635 -1.33695 0.526421 
0.477939 -1.33131 0.345013 0.729899 -1.324 0.310292 0.836282 -1.33918 -0.0407254 
0.818555 -1.27152 -0.0305487 0.450698 -1.30928 0.162626 0.695213 -1.40706 -0.102461 
0.638685 -1.30104 0.244237 0.693005 -1.36321 0.17701 0.774137 -1.35531 0.378932 
0.802065 -1.22296 0.00603013 0.837188 -1.30369 0.153857 0.820572 -1.28868 -0.101639 
0.852457 -0.971672 -0.00842966 0.883322 -1.39387 0.111191 0.847867 -1.24007 0.394013 
0.928723 -1.19743 0.248365 0.806895 -1.34801 -0.142653 0.852759 -1.30247 0.219077 
0.937194 -1.03709 0.253495 0.966032 -0.316223 0.0309755 0.837667 -0.606926 0.0346168 
0.862254 -1.13123 0.0789007 0.90464 -0.927074 0.124047 0.93775 -1.20482 0.152173 
0.902183 -0.800136 0.275155 0.901165 -1.16636 0.337884 0.853324 -0.297979 0.30277 
[...]
POINT_DATA 1274
FIELD FieldData 10
VELOCITY 3 1274 double
-0.15246856505 -4.6142741487 -0.16092244279 -0.19371355472 -3.9792312178 0.026705773049 -0.51820674505 -3.7973948248 -0.44461904816 
-1.5919534775 -3.0689808822 -0.97870505873 0.75860795368 -1.8473447024 0.00074588721738 0.36311077706 -2.6367630642 -0.17132446351 
0.20977332259 -4.9512240318 0.23789527621 0.27306775961 -3.0961830683 0.2262727546 0.76129237947 -1.8488884634 0.021439733051 
0.73343746215 -1.7948068772 0.01306618419 0.33817558782 -4.0749452111 0.0044830103828 0.41305341955 -2.1302922306 0.065211252126 
0.59302313474 -1.4179229178 0.005663042109 0.59693167607 -1.4027674567 0.027966868107 0.65614979975 -1.6127100022 0.0028699019334 
0.55670198893 -1.3053078648 0.11742331538 0.66865913543 -1.6224046105 -0.064462269638 0.59664833195 -1.3736544501 -0.056700306626 
0.59594557059 -1.5593623005 -0.075100677553 0.81899218748 -2.5900062261 0.068573619187 0.58963172546 -1.4326555999 -0.079092638368 
0.4367729776 -1.9997339927 0.13543540729 0.5932898142 -1.4410987478 8.300600201e-06 0.53748756975 -1.3202439207 0.15369676375 
0.58433879887 -1.419063762 0.045901130603 0.65600255742 -1.5485658941 -0.24960693483 0.59300869387 -1.4415601727 0.001657848369 
0.52839423653 -1.2831784782 -0.00054641552142 0.57804160322 -1.4969194102 0.010653694486 0.54740003667 -1.3228982113 0.0038173394429 
0.50721118592 -1.4476598143 0.012262936199 0.67597199674 -1.6331247097 -0.049803907073 0.44070552468 -1.6786332845 0.060967032072 
0.53345303897 -1.3899138565 -0.014822131364 0.77179875157 -1.6118004279 0.038044211138 0.62301701614 -1.2325447975 -0.014075060887 
0.59609484249 -1.6275187812 0.091178819208 0.62527125492 -1.513038161 0.13514874068 0.65466230909 -1.5812343692 -0.037567608101 
0.52297270955 -1.2792913477 0.076023078083 0.58590263194 -1.4024368204 0.00042708936456 0.62729833178 -1.3181263129 -0.032743352056 
0.63185970258 -1.5193772618 0.17604379125 0.59355725042 -1.4414842627 -3.4628638465e-05 0.52683202456 -1.2779762611 0.10710277364 
0.38153442345 -1.7029180601 0.017353812669 0.59460770623 -1.4440456211 -0.010126307601 0.64192055763 -1.5587331983 0.13551319767 
-0.003988882379 -5.0412820637 -0.24874007945 -1.5561151409 -0.45186394331 -0.15964286824 -1.7189257856 -0.63931061387 -0.26165720867 
-1.7238087299 0.17910710189 -0.012589950613 -1.260258944 -0.13164588456 0.41276289899 -0.89977036111 0.03629907194 -0.063725563425 
-2.0542688444 -0.13639079128 0.43202388914 -1.992262656 -2.2719476412 -0.31025919409 -1.2911998881 -0.082240825955 -0.27788287723 
-1.2944655371 -0.060464287541 -0.37569155983 0.49691100134 -3.1872085533 -0.12828887469 -1.1023092059 -0.73582220393 -0.44547393698 
-1.2201098731 -0.29242953584 -0.67610390985 -1.2377993191 0.10653889193 -0.032545777579 -0.72182551645 -3.4529895798 0.50779521517 
-1.5813308249 -0.069871683381 0.0017208031147 -2.5580491223 -1.4122535295 0.4426327723 0.24115098788 -2.4866435139 -0.02279185643 
0.33584004964 -4.7770468186 -0.093306409978 0.42651947685 -4.5124236291 0.15391744368 -1.3116324668 0.049953178176 -0.67983225494 
0.23105666325 -3.9595372311 0.084859288148 0.4685957547 -3.4361294203 -0.12368274186 0.14704884165 -3.1485409783 0.17615074734 
0.10872903161 -4.0753897959 0.14151373556 -1.2892664839 -0.014595171819 0.63253463549 0.47071829463 -3.7034310224 -0.068032940843 
0.22246201353 -4.9174231804 0.23330775946 -0.022292827167 -2.4014591583 -0.080922878591 -0.079201179854 -4.5719743903 -0.18808017675 
0.38551413364 -3.6887599899 -0.023669109436 0.48477282402 -2.1880977788 0.096865478094 0.78873005064 -1.9154873556 -1.6283267069e-08 
0.16253814281 -4.3093831531 0.12176410181 0.5489412725 -1.6213574632 0.17256419037 0.12724385967 -5.0401286448 0.16889246894 
-0.018813349479 -3.4801009801 0.11151285895 0.39919464943 -4.6719651031 0.14113258781 0.57228131056 -2.448730865 0.077954598646 
0.51553890717 -2.352536551 0.0015768352987 0.57647871941 -3.6529768156 -0.24048391062 0.50093122166 -2.4253607362 0.16783300267 
0.61097798816 -3.9472170989 -0.26153565763 0.47434972199 -2.216948709 0.049136727365 0.51130208626 -2.0605514687 0.0019778625162 
0.73455199512 -1.8449946105 -0.0096851771776 0.42957804467 -1.2259878551 0.0021317697236 0.63559606803 -1.7876153146 -0.0027530886157 
0.60954857102 -1.6333349456 -0.14245276579 0.85509410167 -1.5784697851 0.14225050489 0.35918229612 -1.9106488947 0.37345092435 
0.54818283726 -1.9229851064 0.0064789534385 0.67618599451 -1.6421650086 -0.00054311579616 0.28408776607 -1.8720856774 0.11852967878 
0.69101354596 -2.0417908584 0.20788330367 0.7381474916 -1.5782482995 0.0022837817259 0.7394387336 -1.66469508 0.036100038352 
0.43295958977 -2.0756546442 0.13909747866 0.6900186411 -1.6381351274 0.048376595431 1.0678067952 -1.8423560025 0.11014299696 
0.42865975469 -1.7182598283 -6.1465388618e-05 0.48761751659 -1.5815345527 -0.00419353295 0.64583907135 -1.5321386841 -0.018756753738 
0.56200575757 -1.4056660154 -0.007756922533 0.50183793229 -1.9217835989 0.090403691073 0.60071493599 -1.830918767 0.16875437639 
0.57611562811 -1.4243993558 -0.058286347524 0.44456020965 -1.3421618795 -0.074214674618 0.55607249488 -1.4607301313 -3.8840331499e-06 
0.54647238072 -1.6175808418 0.098934711075 0.5782356832 -1.3355578349 -0.0018173645667 0.32270851224 -1.5628919759 0.13202268665 
0.58276250705 -1.3251487372 -0.0055518853235 0.43503303924 -1.43208735 -0.01080248039 0.53843916804 -1.7670138736 -0.15630475577 
0.42794129668 -1.2443535843 0.0020968757744 0.72167690097 -1.4669017062 -0.097891051743 0.51997458985 -1.5436599397 -0.035644218747 
0.58379793041 -1.2937638541 5.3900426872e-05 0.59020189287 -1.6990091397 -0.00054041877306 0.6059663818 -1.3557394305 0.17074148914 
0.5377177139 -1.2943871185 -0.0016493360093 0.59216940353 -1.3948331847 0.041348003487 0.5424125924 -1.2365106529 0.079881877184 
0.60959008504 -1.3384432217 0.024188133962 0.51678670219 -1.318263639 0.083921963798 0.4831281831 -1.5487929114 -0.039220488474 
0.53980033039 -1.4718869435 0.097311870473 -1.6584841667 -0.39346374335 -0.95956589213 -1.5469776345 -0.15600334922 -0.89912829152 
-0.13066057076 -2.2041166942e-05 0.0086162910196 -1.9302800752 0.20001789642 0.079319889489 -1.2140210529 0.080713474742 0.062275863067 
-1.140431305 -0.0015496731697 0.00069660543297 -0.89741361715 0.12940076438 -0.45238378223 -0.52379231719 -0.15820485042 -0.45471157912 
-1.4141331854 -0.25562455132 -1.214425386 -1.0369152402 0.06765951857 0.24105742397 -1.2750016185 -0.070746452327 0.64950692332 
-1.586327319 -0.13564750416 0.17147887226 -0.90762500921 -0.0002903989079 -0.040929730899 -1.8851925739 0.082167617234 0.02317526148 
-1.3319300874 -0.34922008466 0.12919762655 -1.6110019342 0.35482736489 -0.72019513657 -0.8892812792 -0.83347799564 -0.57761031249 
-1.5398443145 0.00023745357602 -0.47925213598 -1.7429112929 -0.37836280832 0.30269639001 -1.7241641786 0.041155300578 -0.35046021371 
-1.032531265 -0.26129903942 0.022474912822 -0.94552688422 -2.5212032073 -0.50593659434 -1.4980224868 -1.1099681757 0.32547561487 
0.25126981938 -4.9639622759 0.12003190203 -1.9046141909 -3.598522239 -0.2539600265 0.017176937563 -4.859922299 -0.016876574564 
-0.38118360863 0.073806962187 0.64905256881 -0.94925078388 -0.03099022199 0.0099399458985 -0.18388076679 -5.0029723195 -0.15189881292 
-0.33948388864 -3.4966523059 -0.62701050093 -1.2024434625 -1.7218489324 -0.79866340255 -0.077527821599 -4.5469352167 -0.054762897691 
0.054976149646 -4.3137193697 -0.23987363012 0.23860551447 -4.0209801747 0.025552191373 0.20512258 -3.0820147428 0.27320055721 
0.17419698149 -3.506681131 0.30964746853 0.39378817785 -2.7770739964 0.48638950174 -0.77249290332 -0.50619240352 -0.31321708505 
0.24028654861 -4.8647095289 0.22691467526 0.4705261841 -2.9058188399 0.00043556842405 0.37260680097 -4.2132699027 0.14795834831 
0.4455108291 -2.9405490034 -0.22663281798 0.754534615 -2.5149383793 1.319037406e-05 0.25131999755 -1.9478877646 -1.0897179103e-10 
0.52347686072 -1.8611307514 -1.8872559155e-05 0.22765922969 -3.3361856943 -0.043119578406 0.34925388596 -2.0682594407 0.0055464962306 
0.29379191347 -2.1864680962 -0.001085628576 0.38404509576 -3.0909052289 0.24189332096 0.92251447377 -1.6437902661 -0.13843045947 
0.55629664054 -1.7529911847 -0.14956802692 0.3145986458 -2.328245629 0.15080356076 0.26854052601 -1.3291000485 0.044518532611 
0.43107641031 -2.9279835645 0.20803069224 0.51312845228 -1.3426930223 0.0099954949748 0.36326828962 -1.6656118026 0.00017206192233 
-0.0042819693 -2.449200878 0.045817841031 0.66136672368 -1.8596359959 0.01236728785 0.050360240247 -2.0403499712 -0.074150438178 
0.44596191574 -1.9580850061 -0.027852384546 0.19860474872 -2.7102485114 0.089659004506 0.56819539215 -1.5994007472 -0.20362761145 
0.25792804264 -1.6700446121 0.19236470212 0.3689820687 -1.3762644291 -0.13192454609 0.17951060324 -1.6115510548 -0.0021291622839 
0.78821463752 -1.7549343906 -0.065863257055 0.56571486467 -1.4470286939 -0.14937582945 0.85595871407 -1.187528887 -0.13270195507 
0.29951326841 -1.5858660921 -0.023552750716 0.78940986024 -1.470290642 -0.084053223572 0.9148272329 -1.5269084147 -0.15002524848 
0.36200680453 -1.5708383916 -0.13330054201 0.012279985335 -2.0331980997 -0.017197431847 -0.044197761859 -2.1390446424 -0.083970655471 
0.47526213677 -1.3461227344 -0.084029718776 0.6673319936 -1.1577630966 -0.13450517698 0.34375681423 -1.4267219447 -0.03149119451 
0.42806562727 -1.2280034141 0.15268403122 -0.77978454208 7.3347444278e-05 -0.20051669417 -0.90092091782 0.035597866779 -0.2319113542 
-1.2377888194 7.7813925804e-12 -0.1491820732 -0.77540965874 0.09513040036 -0.051863274146 0.067301694284 1.8567696418e-12 -0.073188539893 
-1.6257109577 -0.11566080875 -0.3173910611 -1.0441383449 0.042923160954 -0.43473326058 -1.8580691702 -0.15672353689 -0.10735793278 
-1.1051333381 0.019139641968 -5.1577281788e-06 -1.3757876677 0.00025833610463 -0.071899026151 -1.1439988956 1.4804770971e-12 0.28266099937 
-0.99534621212 0.041853960469 -0.00022863159297 -1.1830752354 -0.094881211278 0.0414535588 -1.2108103625 -0.091702531026 -0.60709574856 
-1.0896626956 -0.05364963167 -0.35346277967 -0.9873740443 -1.1281098645e-12 -0.45141660075 -1.6948067945 -0.062155873779 -0.086076589189 
-0.98380150012 -0.08168268407 0.59456816932 -1.0413093749 -1.2570080078e-12 -0.1555469868 -0.11123459112 -0.029923216111 1.1475697645 
-1.2364860355 -0.0027967745437 0.17743575124 -2.4751603342 -0.68392879405 -0.33080680884 -1.09580742 -0.43219526002 -0.58472786838 
-1.6852392717 -0.50798067165 -0.1988389903 -0.76302022091 -0.39432695605 0.53002189451 -1.4962895811 -1.2511395962 -0.068916770019 
-0.32073183874 -3.489481806 -0.01303201966 -1.5803836924 -0.20245510077 0.2569151368 -1.3460217927 -0.60340510776 0.31187408976 
-1.1875594531 -0.10081168494 0.36232718528 -0.2250524549 -0.85983323666 -0.40289904205 -1.2258336292 -0.1123077626 0.27631137535 
-0.83833157948 -1.5736970527 -1.4115565118 -2.1630943237 -0.014855992439 -0.5742794072 -1.3178990383 -0.26948493734 -0.38057496373 
-1.9994077272 0.30025675521 -0.40132619867 -0.78628591348 -0.85860273769 -0.34542332402 0.0095427425004 -4.1869067641 0.15085669273 
-1.5463941416 -1.0873821551 0.039571315 0.12067237263 -5.0536068132 0.11543062291 0.43526619279 -3.1265836291 0.0042253737338 
-1.1577703655 -2.617561921 0.02111853064 -1.8068772275 -0.77958022455 -1.6268992504 -0.76568521813 -3.2150441662 0.52421515307 
-0.77613132564 -2.8052908847 0.3869445538 -1.3258909479 -0.38617103617 0.21932360281 0.27295842223 -3.1573663701 0.1054979066 
0.13870403251 -3.736413542 0.046438457414 0.036511538692 -2.6746857239 -0.14376754427 0.42694896825 -3.5232123386 -0.22916496767 
0.053569877876 -4.3202969626 -0.013257899416 0.21920010101 -4.4041819391 0.045409479463 0.38264980558 -3.4770046306 -0.18706961355 
0.24607468299 -3.501024349 -0.11232714629 0.38973702252 -3.3089740951 0.23775617376 -0.45680533968 -3.9418173319 0.73235377809 
0.3168317866 -3.4773696409 0.2307883915 0.49332164178 -4.2982553724 -0.0036077998964 0.17650910719 -3.7172985514 -0.23964335571 
0.18129161915 -1.7831038559 0.0071484438332 0.25405625387 -2.3705175975 0.034403303566 0.17243712255 -2.0784172395 0.10081799741 
0.22602963534 -3.0319141972 0.09767394171 0.19549454652 -2.7562371342 0.17779043992 0.6895800056 -3.1197331644 0.080298537986 
0.43729086771 -1.1609875827 -0.0095958566417 0.29982472701 -2.277089979 0.11508125035 0.38968809239 -3.1384964932 0.12468667159 
0.34442722933 -1.9565972348 -0.20875931276 0.23942055223 -1.7217234093 -0.39105393737 0.23210318161 -2.024013075 -0.058590042708 
0.48988421514 -1.5391584775 -0.12292111239 0.56818987659 -1.9504234567 -0.23591618379 0.14247346825 -2.616528381 -0.016846233325 
-0.0087135480959 -2.424406495 -0.05048760014 0.66232501863 -1.3729292138 -0.20335850897 0.38923959696 -2.2980316864 -0.27917128666 
0.31699191381 -1.269192124 -0.1666303983 -0.021678090598 -2.002383183 0.0054660122792 0.13598363211 -2.1262395198 -0.11272009901 
0.17137781643 -2.0753086823 -0.08913530131 0.72718076249 -1.2658426609 -0.056222584866 0.2128128806 -1.3898417238 0.25520565372 
-1.1813820038 -4.9581638449e-10 -0.28402209833 0.027492249458 0.44544238441 -0.20290551629 -1.3675738055 -1.2102526143e-05 0.14823741377 
-1.0547386935 -4.0973220576e-13 0.23310155171 -1.0063027135 8.4206507235e-06 2.9434118206e-05 -0.92590377444 5.424777777e-05 0.048316410134 
-1.5840906663 2.5995393799e-12 -0.27664412141 -0.92343752687 0.0005501110422 -0.21145757461 -0.64737196584 -0.14042093398 0.0052583965815 
0.015137365356 -0.10625699712 -0.2916533789 -1.257388596 1.0141958242e-11 0.01239274282 -0.92140016695 -0.00019172712579 -0.090892691011 
-1.3140964848 0.00016636999276 0.029128214004 -0.99447785603 -0.012374892027 0.045780953502 -0.90796990181 1.4372105105e-05 0.20609389665 
-1.1090254978 0.045898688542 -0.30662891384 -1.3013725428 -0.39604554166 -0.21685718887 -1.0456574467 0.0058657895503 -0.0061748895347 
-0.58863349863 -4.2711068843e-05 -0.31886504246 -0.65133433474 -0.68225060281 -0.36543522132 -1.1825085389 0.0041436438536 -0.060694974646 
-1.5853479907 -0.2961311594 0.22650845916 -0.86775725248 -0.018182169811 0.12687052455 -1.6344718797 0.18341950571 0.27532543006 
-1.0444404774 -0.0046052228727 0.053648359862 -1.6456747815 -0.10815372488 0.028955656806 -0.91555906997 -0.0033043279542 -0.11159641906 
-1.2765978507 -5.0988618141e-12 -0.13870647203 -2.2231470138 -0.44567159058 -0.61985765959 -1.0183918484 -0.048850866407 0.090594775078 
-1.2809304901 -0.28792498348 0.49620925761 -1.3321669286 -0.15726296049 0.089471577075 -0.13283240029 -0.075848875188 0.01865793607 
-1.1244724854 0.028552390945 0.015104231694 -0.794511516 -0.17314598457 0.50662639324 -1.1847624071 -0.58800646815 -1.2041495738 
-1.6701912593 -0.77464056772 -0.16011872038 -1.921465897 -0.099623030077 -0.34728257168 -1.1798555903 0.0035450931974 -0.56317337388 
-2.462906734 -1.1752274682 0.1679273372 -1.5293333312 0.16724638956 -0.12541397426 -0.76715040552 -0.24946086989 0.20075228733 
-2.2030276135 -0.38204499469 -0.093809804234 -1.1707982013 -1.0763370934 -0.77294606173 -0.69403162712 0.097244044328 -1.2285027367 
0.10854934787 -5.0959746868 -0.19468929649 -0.85505475308 -0.81087619988 0.087875164451 -0.61543703774 0.11802385872 0.22610542807 
-0.78958841096 -1.172970708 -0.11522154809 -0.8792356883 -0.12267580947 -1.0038295549 -1.1285700951 -0.4060995491 -0.59699752241 
-0.19103379446 -4.4669856147 -0.28257896264 0.29775102951 -3.3440808926 -0.2076980325 0.054277909989 -4.2332505824 7.6905277277e-06 
-0.52786366166 -2.6286045689 -0.26098023515 0.17759574666 -5.1013230353 0.023659796559 -0.56369900302 -2.308144306 -0.29763485373 
0.18782110681 -4.6555509139 0.076249481578 0.3046137327 -1.9417499633 1.4524412633 0.36224162921 -3.4344125958 0.38005787819 
-0.031686599198 -4.8177492951 0.094285187105 0.26502019811 -3.5247204928 -0.056015476101 -0.13998167715 -3.3849306399 0.30571404279 
0.028763207686 -2.9134091539 0.099550741515 -0.058042531335 -4.3944962547 -0.092156909964 0.30116789604 -4.0080990767 0.031311924415 
0.071499110526 -3.699464439 -0.082037062634 0.074738480302 -4.6056993096 -0.0032171238235 0.064027987303 -3.5701354173 0.087480402211 
0.074591662137 -3.3477014469 0.087240929871 -0.086970419131 -4.2182833449 0.13292517462 0.21201490089 -2.858221549 0.028671018074 
0.26138268249 -2.3255013015 -0.02262290464 -0.00019634086127 -2.2075469336 0.029919906499 0.12894954224 -3.1682827339 -0.039730443103 
0.43250442092 -2.7855819935 0.14378669009 0.29380011966 -2.1321965955 -0.023486793798 0.30941745069 -3.6885214629 0.068833873726 
0.33370134073 -2.1424146373 -0.0062368513995 0.10370401664 -2.9035902474 0.094793170539 -0.13159016185 -2.9991390543 -0.10513920032 
0.2896470516 -3.2406160661 0.12334791934 0.50790869345 -1.2564228958 -0.0097646976503 0.71347281421 -1.4541364201 0.023468973352 
-0.21771710464 -3.3894868367 -0.01413232861 0.14867711153 -2.4514066479 0.17470598713 0.12537533553 -2.562340479 -0.054211174202 
0.23424265531 -1.3581958226 -0.0058891557284 0.14610184869 -3.093844821 -0.0018431596219 -0.21669975875 -2.718400937 0.30160238655 
-0.79830292178 2.3752279692e-12 -0.1585827198 0.053444102797 0.41416708294 0.31571190618 -0.43910445897 1.1780654746e-05 -0.14860567867 
-1.4507402346 3.1309677428e-06 0.13828745024 -0.69547692037 5.2518434858e-05 -0.00010051110766 -0.76002907743 1.7275724125e-12 -1.3939606513e-05 
-1.2024042827 1.7911791535e-12 -0.00062085214414 -0.49409392109 7.7701421582e-12 0.0025021073777 -1.031161004 1.1082489408e-12 -0.37710848017 
-0.4794707585 0.11459104275 0.047001625856 -1.1339076324 0.00039991067265 -0.065590855499 -0.90880291226 -1.6569278963e-10 -0.0013229568027 
-1.373793051 1.0716489958e-05 -0.023450155706 -1.3918415338 0.018183285462 0.39708589097 -0.8440516617 -2.2436163279e-05 0.13347838636 
-1.2123087174 -2.0414034931e-12 0.23517151633 -0.29508262665 -0.15494706566 6.0760681483e-06 -1.0747403895 0.014394293712 -0.38529114917 
-1.5492148107 -0.10608797844 -0.24945512112 -1.2299990952 -1.394464644e-07 -0.52842100933 -1.4845195858 -7.4703232584e-12 0.17584950859 
-1.1782623328 0.0075600475658 0.13433957234 -1.0369516884 2.0534104466e-06 0.19052966646 -0.4466340912 -0.099469262163 -0.0038537456542 
-1.1749151897 0.10880961907 -0.29519115788 -1.3837284283 -0.00082187677838 -0.22030565139 -0.6370926826 0.0085169969954 0.020708789181 
-0.89337891571 -0.0015797447785 -0.23426263846 -1.7785974942 -0.20893397878 -0.15220454768 -1.061043568 0.051011013143 0.21808622165 
-1.0103346691 0.52748978692 -0.17801746173 -0.74048521683 -0.01332865233 0.4636434565 -1.2709972155 2.4250843184e-12 -0.1829958537 
-0.8494048704 -0.62813116329 -0.45006581287 0.061751371932 -0.075637887462 -0.71721144011 -1.6618135988 -0.00020280330933 0.05760616211 
-0.98556666212 -9.1964126445e-12 0.2127860417 -0.13535851761 -0.089942885035 -0.017101954057 -1.0899379488 0.16304238633 0.31230788767 
-1.6313889007 -0.016159787824 -0.16369635188 -1.7415640516 -8.7994487903e-12 -0.58101170599 0.20355616863 -1.8837931483 -0.78950333141 
-0.57420364087 -0.54954788831 -1.8507023548 -0.73882706986 0.12650036987 -0.46985980111 -0.50286444716 0.025970556871 0.51715831106 
-0.033423850796 -0.24226822555 0.09922778933 -0.85590396815 -0.58967694215 0.70941234514 -0.66062417681 -0.32228650366 0.74463201013 
-0.16972871567 -1.9719487168 2.0484047342 0.60651239052 -1.337587152 0.28018089263 -0.050941075657 -4.8359724008 -0.086910391291 
-1.1191322804 -0.98354145363 0.18933827109 -0.057225929991 -1.8656838119 -0.61288443639 -0.28239546128 -3.8826954005 -0.33515617543 
-0.20421731016 -2.4346530774 -0.58672716539 -0.57941768531 -1.1171314221 0.1138304183 0.48536369872 -1.7409472294 0.67154226098 
-0.054827729242 -4.6243104018 0.039781200181 -0.36349557071 -3.0781372212 -0.010664200729 -0.97783301238 -2.6975697971 -0.13133940968 
0.28503246601 -4.7441421308 0.053666656937 -0.22715604012 -4.3774313299 -0.20080613826 0.019845551643 -3.9393273187 -0.093483888804 