# vtk DataFile Version 4.1
vtk output
ASCII
DATASET UNSTRUCTURED_GRID
POINTS 1274 float
0.543007 0.48095 0.0379672 0.49767 0.582827 0.101164 0.522373 0.514296 0.265443 
0.527054 0.509146 0.102162 0.452756 0.685321 0.0323172 0.45409 0.696491 0.134388 
0.506733 0.561725 0.214313 0.486315 0.601302 0.268645 0.41629 0.79079 0.0680512 
0.424365 0.74976 0.165284 0.477815 0.621883 0.210044 0.458894 0.675465 0.265755 
0.387001 0.844108 0.0319708 0.367673 0.910122 0.0568914 0.405053 0.820753 0.148476 
0.41997 0.783283 0.229373 0.369955 0.897779 0.262211 0.337808 0.981299 0.0387201 
0.421271 0.855987 0.0901528 0.473236 0.824947 0.109642 0.357202 0.935565 0.130436 
0.44772 0.850619 0.22028 0.332832 0.983294 0.265121 0.381453 0.857986 0.205533 
0.305447 1.04396 0.0496914 0.354081 0.924412 0.200847 0.30902 1.0538 0.260194 
0.274468 1.12185 0.0336633 0.384209 1.04969 0.0923069 0.326218 1.00981 0.110005 
0.31448 1.18606 0.0382194 0.328976 0.98198 0.197129 0.308296 1.04043 0.173597 
0.363817 1.1876 0.0873877 0.410665 1.08885 0.0367686 0.299952 1.0892 0.112313 
0.44889 1.08205 0.102164 0.28441 1.09294 0.205492 0.363279 1.04173 0.21153 
0.242282 1.19884 0.0332281 0.341952 1.11059 0.0467042 0.346469 1.09515 0.17642 
0.26753 1.14369 0.16445 0.303904 1.12834 0.264842 0.264253 1.16344 0.0925075 
0.396378 1.15984 0.0356812 0.258262 1.1775 0.231235 0.238786 1.20064 0.146205 
0.561468 0.415789 0.0302126 0.657609 0.183747 0.109935 0.631688 0.270959 0.109443 
0.643806 0.233766 0.189261 0.611912 0.30195 0.266389 0.645391 0.228572 0.263448 
0.571578 0.395145 0.207925 0.540754 0.480036 0.210797 0.638538 0.24355 0.0366982 
0.591066 0.358299 0.155022 0.514063 0.551044 0.0378753 0.638938 0.397215 0.0511093 
0.577023 0.399611 0.0950922 0.57829 0.378393 0.268475 0.590218 0.502472 0.262744 
0.558471 0.437038 0.157048 0.572757 0.586269 0.0315132 0.472298 0.646105 0.0840399 
0.557801 0.612244 0.0986747 0.512979 0.677887 0.186302 0.595894 0.469544 0.106927 
0.547582 0.578284 0.266712 0.473021 0.632167 0.148929 0.44723 0.699188 0.20447 
0.522621 0.596975 0.160507 0.600399 0.491657 0.174183 0.522074 0.698922 0.0956761 
0.571221 0.690021 0.146047 0.483864 0.746074 0.0399984 0.533132 0.645341 0.0397611 
0.506852 0.739525 0.151091 0.459278 0.762216 0.114932 0.390322 0.831574 0.269731 
0.529539 0.694944 0.260787 0.569987 0.54013 0.209141 0.59142 0.674907 0.21631 
0.497272 0.741228 0.21589 0.539306 0.622888 0.220774 0.480934 0.820804 0.0384278 
0.540643 0.783454 0.0319727 0.546878 0.718961 0.0326137 0.474434 0.797286 0.175782 
0.518166 0.768662 0.0943645 0.488783 0.80506 0.26066 0.462081 0.740537 0.269008 
0.440146 0.893798 0.0373609 0.396695 1.02104 0.0325903 0.489365 0.944129 0.0335965 
0.427933 0.931742 0.100787 0.447826 0.885213 0.156959 0.495605 0.891497 0.0984812 
0.508019 0.876127 0.265561 0.443974 0.910824 0.261332 0.559449 0.916631 0.2689 
0.500293 0.886082 0.201542 0.414693 0.958601 0.0329937 0.388298 0.985555 0.0863582 
0.490964 0.959352 0.0952342 0.389202 1.00281 0.156211 0.420923 0.943735 0.196655 
0.462754 0.984536 0.264236 0.39752 0.964413 0.265296 0.506918 0.938163 0.238347 
0.494176 1.0719 0.039691 0.498514 1.0183 0.109343 0.455224 0.985259 0.138344 
0.385877 1.02664 0.269154 0.553578 1.11295 0.174677 0.510988 1.03222 0.266839 
0.431718 1.02533 0.214258 0.44875 1.07371 0.26422 0.470256 1.05393 0.164132 
0.376631 1.09599 0.258729 0.549434 1.12145 0.0373019 0.525389 1.08187 0.118908 
0.462562 1.13717 0.0341976 0.388199 1.12315 0.0978991 0.407637 1.07322 0.162987 
0.363995 1.17392 0.260951 0.471609 1.09984 0.207216 0.423566 1.14128 0.223107 
0.493884 1.12674 0.265991 0.513677 1.18563 0.0362707 0.337155 1.15414 0.136881 
0.482893 1.18188 0.221942 0.324528 1.15197 0.203428 0.498584 1.1409 0.169158 
0.401416 1.15054 0.158951 0.691482 0.105488 0.180274 0.587986 0.354821 0.0317124 
0.719425 0.0487255 0.0627701 0.729781 0.153103 0.208903 0.673534 0.160109 0.263506 
0.721967 0.0456154 0.203257 0.687655 0.114374 0.116581 0.643273 0.315665 0.0363734 
0.60918 0.336836 0.0915495 0.555748 0.440033 0.265844 0.646187 0.382534 0.26065 
0.668135 0.167867 0.175992 0.697481 0.261935 0.229868 0.654299 0.359908 0.131402 
0.623461 0.469508 0.038052 0.691661 0.316816 0.0926553 0.571312 0.55284 0.135655 
0.641757 0.426496 0.149271 0.620993 0.436267 0.217157 0.624227 0.317169 0.203171 
0.634995 0.557456 0.264834 0.628112 0.640614 0.0390076 0.591004 0.530165 0.0681921 
0.605723 0.654987 0.104353 0.587087 0.620728 0.161483 0.622506 0.637083 0.268228 
0.625278 0.561512 0.178568 0.679259 0.555689 0.213165 0.59656 0.59564 0.226311 
0.631541 0.674464 0.157204 0.619683 0.588999 0.0965095 0.660422 0.711677 0.0400877 
0.588846 0.711131 0.08067 0.56178 0.740539 0.191964 0.56171 0.765433 0.261853 
0.63277 0.7126 0.265255 0.536519 0.802081 0.207955 0.651805 0.626018 0.198449 
0.627155 0.745128 0.208224 0.602431 0.757006 0.0348861 0.583533 0.772817 0.0969672 
0.593319 0.831719 0.0396934 0.511459 0.883381 0.0315419 0.573591 0.842215 0.260444 
0.623111 0.896979 0.26555 0.546958 0.787601 0.146213 0.525583 0.844589 0.161969 
0.5583 0.932118 0.05036 0.54178 0.833027 0.0962406 0.499793 0.997878 0.197298 
0.495093 0.938322 0.156122 0.559398 0.919629 0.131902 0.54514 0.979411 0.269179 
0.584704 0.873681 0.188967 0.462008 1.00601 0.0394504 0.563702 1.05376 0.0335692 
0.596919 0.993504 0.0354083 0.529007 0.996895 0.0328785 0.57942 1.04188 0.0960724 
0.551225 0.983285 0.100634 0.562426 0.940342 0.202809 0.527349 1.06536 0.21117 
0.565188 1.17246 0.0888687 0.606032 1.15889 0.032289 0.589225 1.1143 0.122079 
0.544325 1.0234 0.150389 0.62645 1.01743 0.26867 0.570901 1.17079 0.158803 
0.556403 1.14966 0.234727 0.589111 1.06025 0.182261 0.572707 1.00449 0.216112 
0.584345 1.07492 0.259334 0.671607 1.1538 0.0427984 0.653094 1.13501 0.107646 
0.490664 1.14873 0.100309 0.676204 1.1626 0.222802 0.623198 1.12787 0.18647 
0.789161 1.08459 0.210494 0.738574 -0.0156171 0.0307092 0.748189 -0.0162805 0.100008 
0.745605 -0.197842 0.174283 0.740748 -0.0138323 0.266395 0.753713 -0.0832893 0.188199 
0.669556 0.175692 0.0388766 0.741749 0.206017 0.0432186 0.744488 0.0531344 0.132442 
0.751066 0.126036 0.26734 0.682556 0.295291 0.165438 0.746131 0.0608073 0.267445 
0.721766 0.210482 0.266677 0.715222 0.204797 0.144648 0.698835 0.360069 0.0349617 
0.69675 0.39574 0.0939843 0.689113 0.232057 0.0867531 0.720866 0.361656 0.153206 
0.677204 0.352402 0.206175 0.754665 0.121713 0.105226 0.745443 0.294061 0.199289 
0.752164 0.223078 0.203017 0.643326 0.567572 0.0351672 0.693344 0.442282 0.0349406 
0.671503 0.464423 0.0962355 0.632698 0.522778 0.123912 0.674946 0.488711 0.160796 
0.685806 0.60868 0.262138 0.662314 0.451462 0.269065 0.715272 0.47202 0.217968 
0.649985 0.49727 0.223183 0.712507 0.435667 0.145729 0.705793 0.407554 0.203028 
0.674954 0.629592 0.107844 0.687392 0.554356 0.0927858 0.733227 0.450102 0.0865879 
0.738873 0.496651 0.141151 0.742123 0.536185 0.198219 0.689432 0.746627 0.268679 
0.686059 0.58408 0.156657 0.646126 0.724476 0.114798 0.663758 0.796822 0.0452778 
0.717613 0.675153 0.0852779 0.732765 0.605995 0.0837524 0.705336 0.676635 0.157619 
0.659433 0.692069 0.208872 0.725106 0.617274 0.200711 0.632791 0.781655 0.264299 
0.599076 0.800696 0.183955 0.63449 0.896763 0.0372525 0.688683 0.90231 0.0784046 
0.650431 0.791586 0.113599 0.657137 0.849779 0.0918376 0.603568 0.830109 0.124475 
0.628301 0.895392 0.138867 0.650996 0.90276 0.202848 0.696656 0.76183 0.149765 
0.640471 0.840618 0.234561 0.667603 0.791677 0.201165 0.649339 0.844188 0.16968 
0.648495 1.03968 0.0300662 0.665852 0.968024 0.0383775 0.712377 1.0259 0.0388787 
0.595883 0.879966 0.0900269 0.619301 0.945154 0.0936456 0.690863 0.963869 0.111348 
0.603625 0.959768 0.255809 0.624405 0.951707 0.165544 0.685726 0.952725 0.179711 
0.640117 1.0143 0.0894286 0.640494 1.06941 0.135529 0.716778 1.09879 0.0370861 
0.617559 1.08984 0.0628892 0.602991 1.00699 0.143849 0.644325 0.987496 0.214731 
0.759081 1.05617 0.0841959 0.653539 1.05892 0.217111 0.67365 1.01323 0.161858 
0.62613 1.13942 0.263366 0.779151 1.13191 0.035182 0.809617 1.10326 0.106739 
0.708021 1.09513 0.105992 0.701219 1.12408 0.170148 0.693351 1.10809 0.262216 
0.748215 -0.108678 0.0263404 0.785504 -0.101058 0.0853946 0.742548 -0.140024 0.118969 
0.807507 -0.196512 0.142078 0.756967 -0.172177 0.264224 0.7463 -0.0988222 0.251628 
0.748421 0.11075 0.0350623 0.809117 0.000580806 0.0392038 0.807288 0.139481 0.0331562 
0.81793 -0.0455746 0.0959781 0.793993 -0.0290155 0.165468 0.807395 -0.0461759 0.264736 
0.809178 0.0374837 0.160348 0.812105 0.0823689 0.263002 0.788703 0.00895279 0.223235 
0.719296 0.278385 0.0363976 0.81178 0.202832 0.0314114 0.764794 0.18813 0.10759 
0.810252 0.0681844 0.0963202 0.758803 0.297443 0.0916283 0.802037 0.223435 0.144168 
0.749173 0.260311 0.143602 0.790814 0.19667 0.263464 0.77883 0.0972926 0.194139 
0.714369 0.326724 0.260349 0.768743 0.38334 0.0997875 0.769035 0.341913 0.0378041 
0.817101 0.327088 0.0963101 0.783184 0.321795 0.152723 0.808989 0.26954 0.193295 
0.713889 0.399918 0.266632 0.834299 0.412301 0.264156 0.773355 0.271752 0.260565 
0.775999 0.370787 0.252663 0.765701 0.4468 0.262793 0.722092 0.510398 0.0391156 
0.708269 0.58228 0.0315131 0.771916 0.408227 0.184282 0.791928 0.451117 0.122996 
0.705446 0.533583 0.267414 0.781932 0.475245 0.202655 0.769295 0.520773 0.267451 
0.698011 0.650921 0.0313803 0.774118 0.650202 0.110305 0.778383 0.579489 0.0384583 
0.746204 0.690866 0.0324928 0.767867 0.538767 0.101732 0.760917 0.592527 0.261109 
0.713448 0.729317 0.209229 0.751263 0.586264 0.143417 0.776458 0.653822 0.17716 
0.69092 0.676425 0.269476 0.720936 0.851225 0.0402785 0.733169 0.774393 0.0346167 
0.708114 0.739099 0.0865907 0.711483 0.803392 0.0981274 0.765268 0.724569 0.16 
0.760264 0.75739 0.260094 0.738871 0.673815 0.231246 0.694396 0.812265 0.265456 
0.728443 0.797892 0.211428 0.690319 0.877616 0.268899 0.737671 0.935908 0.0398231 
0.748397 0.989806 0.0838171 0.749065 0.86933 0.10689 0.698816 0.853643 0.210747 
[...]
POINT_DATA 1274
FIELD FieldData 10
VELOCITY 3 1274 double
0.2006897567 -0.48952878096 0.0041674930137 0.20254635435 -0.49320127635 0.0046339776347 0.20061546112 -0.46413370267 0.045039513635 
0.22138059232 -0.5414252954 0.031347827463 0.18507057336 -0.44640371497 -0.00044750614155 0.21033855645 -0.51138851028 -0.056613400345 
0.2273780734 -0.56108553348 -0.010119218248 0.16710491592 -0.40442423295 -0.00088526776725 0.16745326622 -0.40891465792 0.082965201593 
0.22182045844 -0.56810585553 0.057762354402 0.23859033574 -0.58114708226 -0.076793340134 0.19832954002 -0.48394443948 9.9010497251e-05 
0.18721871388 -0.45460944907 -8.7334818484e-05 0.19522039284 -0.47410667281 -0.044143018255 0.17050714137 -0.41745081929 0.017581067151 
0.20091113102 -0.49170533691 0.09495982292 0.10081023861 -0.25247477676 0.064250716308 0.15601983921 -0.38080856459 0.00018415864381 
0.28488940356 -0.40993883164 0.056645538927 0.21818321479 -0.55096267694 0.00901580966 0.19966800505 -0.48777647794 -0.012895529053 
0.19129987979 -0.49955789217 -0.011319914865 0.17181789164 -0.4250411407 0.00026945033996 0.29318818245 -0.7120284752 0.2636480826 
0.15738417806 -0.38215968296 0.0079460685579 0.16726700599 -0.40270153028 -0.0025431441704 0.17706875699 -0.42804981413 -0.0061249254925 
0.13209674353 -0.32291214343 -0.0017375000728 0.20409944331 -0.49205339864 -0.072236426738 0.17375385299 -0.41989041716 -0.0058102078584 
0.20852805221 -0.52013667485 -1.8357032428e-05 0.16648750857 -0.41202297772 -0.092287962503 0.18546778364 -0.45226757714 0.023269326715 
0.19256197888 -0.42812973023 0.013062784463 0.16233731787 -0.44994627894 3.7365755912e-05 0.17312492475 -0.42062747625 0.036305190808 
0.19001553313 -0.47872928704 -0.017941023447 0.18468644679 -0.44839613523 -0.015968813382 0.20030249793 -0.50914336107 0.0025206259828 
0.18873583665 -0.45838197946 -0.0018420126804 0.096909839081 -0.61971405135 -0.077696371824 0.2282078277 -0.48421749875 0.052320446042 
0.16439437687 -0.40121951064 0.049185870285 0.10443032456 -0.43430308009 -0.00026929611162 0.21406173104 -0.38695318678 0.053802474847 
0.15151932718 -0.45257920187 0.0011189448866 0.15202636889 -0.3684886871 0.031050990656 0.16147386958 -0.3921508438 0.036156558274 
0.20458718023 -0.49360976552 0.0015932467501 0.37922434805 -1.0345540281 0.19674347453 0.24041256985 -0.58386482775 -0.49764078925 
0.45936844782 -1.1037634625 -0.075207107523 0.32245897673 -0.78260745449 0.00056495150777 0.23270628642 -0.5748330529 -0.00025876145205 
0.23637996247 -0.55849504405 -0.029793422661 0.18399266971 -0.45113917742 0.032069871647 0.23931517404 -0.5782852746 0.09115751511 
0.23004697402 -0.55220594161 -0.042007054427 0.19851578614 -0.48363582411 -0.0012210470909 0.25035971549 -0.53795704887 0.069038180105 
0.20343295427 -0.49078734425 0.0043927477671 0.20211996604 -0.48974011805 -0.0024485725138 0.21282382793 -0.49513625572 -0.0065532924372 
0.20008901616 -0.48546507493 0.039087523328 0.27859771657 -0.60781956153 0.045506939448 0.20673585372 -0.51074098628 -0.059400657344 
0.25960666528 -0.60022721253 0.024195767701 0.22313701827 -0.53378119762 -0.0028814852197 0.32434437608 -0.53606509396 0.096797047959 
0.19319835884 -0.53480540924 0.0029194623141 0.21318181055 -0.51160912382 -0.028754391331 0.18111695294 -0.44182163719 0.020083944751 
0.19910050373 -0.52502136305 0.01068126948 0.34626347629 -0.65917931211 0.23588317066 0.26625957008 -0.58522576918 -0.0082777977903 
0.23948743957 -0.50574015472 0.024844859064 0.24562356409 -0.48227541453 0.056540282828 0.26951845335 -0.60471235792 0.0015469373501 
0.23448409582 -0.54373533463 -0.047716258814 0.15094756844 -0.4929070251 -0.023377398814 0.17645379542 -0.42839795104 0.00020698189841 
0.20247164046 -0.50115007511 0.00063739724172 0.28369307917 -0.50191478278 -0.036001206276 0.21064654927 -0.52294851988 0.021721362456 
0.10095834681 -0.50320702124 -0.068051097172 0.23446478738 -0.61164896462 -0.14480231516 0.16540422782 -0.48894208392 -0.00034751651714 
0.1743504497 -0.55264363255 0.002057916364 0.21111858437 -0.52270531549 -0.0045332490764 0.11794863201 -0.62496049716 -0.020199757516 
0.22810828025 -0.657758193 0.14171031879 0.20126629094 -0.48315103322 -0.00046824999355 0.20956809801 -0.48510116368 0.0017093525977 
0.20261350681 -0.45603428245 -0.0022266895652 0.20538193781 -0.45665706026 9.2068700552e-05 0.19408465893 -0.44321469604 0.0659802521 
0.20819501967 -0.47503782219 0.008537549711 0.23809839189 -0.46506175289 0.0059840656587 0.23629680025 -0.54845491864 -0.0046315742334 
0.13907586887 -0.46836707104 -0.00055509689919 0.1373691771 -0.48250363724 -0.032823060696 0.20214659917 -0.54759166256 -0.0002494169935 
0.24062084937 -0.41243430908 -0.0038944491906 0.21820761572 -0.44999827637 0.033577055347 0.18659979731 -0.49802822198 -0.021157483175 
0.24832424565 -0.54379037196 0.089489239435 0.18402116028 -0.47634032556 -0.027276338246 0.18471549516 -0.46774840688 -0.024014555654 
0.15115683822 -0.46599774691 -0.00019960009953 0.15393292926 -0.47003942268 -0.025562230939 0.20042237887 -0.44398428303 0.04470759113 
0.20210764348 -0.44225063228 -0.014830663751 0.14296294968 -0.42569333596 -0.19832924307 0.19604864744 -0.38140681043 -0.068757583255 
0.23493650426 -0.45940766495 0.0016652599804 0.21128596026 -0.48872094847 -0.0033351101232 0.1419070731 -0.45766755668 0.036578864073 
0.16399480545 -0.47246161563 -0.013384070628 0.13420040912 -0.47537473538 -0.00044451794177 0.19929209971 -0.51418619863 -0.084823487394 
0.18678194681 -0.47056019878 -0.027209529023 0.23917045749 -0.49514650159 -0.026387811321 0.18768370347 -0.47487496133 0.00013048138843 
0.16768105633 -0.45788744666 -0.0058783815952 0.045697409293 -0.69190404842 -0.013555938116 0.20863910919 -0.47904173494 -0.052286385223 
0.18487489824 -0.47410982258 -4.371388111e-09 0.12900589805 -0.55377839865 -0.039362876471 0.21878446934 -0.50975556134 -0.032426476198 
0.20878439878 -0.53750008032 -0.0023237320321 0.24996987559 -0.54570213048 -0.00037837646398 0.21402786446 -0.43719345353 0.017378174254 
0.24985863379 -0.55557172177 0.012419611591 0.18532788384 -0.47863445966 0.009619303946 0.17846831587 -0.5558725638 -0.0083143462364 
0.23100925795 -0.67726177165 -0.059932116685 0.49307305527 -1.1972096863 -0.031463401079 0.14983751781 -0.36363905669 -0.028065092217 
0.50074618834 -1.2160979408 0.0011485857323 0.71551592669 -1.3609424437 -0.028430514716 0.25194449656 -0.58786390797 -0.0034640741456 
0.45708181362 -0.99840910347 -0.12413808985 0.24767785685 -0.61019470462 0.066176235716 0.024394913232 -0.55561062824 -0.00094412245153 
-0.04993460676 -0.54752242098 -0.051678652239 0.20115622395 -0.48877973693 8.3782228471e-05 0.21286082415 -1.1307053211 -0.077772883891 
0.48404559297 -1.1664730734 0.2756445135 0.50182339085 -1.0317707574 -0.027331529827 0.21610328113 -0.79926052825 -0.10889189676 
0.14784325012 -0.57090371752 0.0011571513512 0.16065246211 -0.89278583777 -0.063037047658 0.26801710525 -0.55859131468 -0.012286699317 
0.28736570419 -0.92603823246 0.12917923054 0.32515216862 -0.70053971912 0.13523711915 0.051607536088 -1.1634660428 -0.14461473487 
0.30090006755 -0.56561506174 -0.03501361405 0.20335740651 -0.34875043358 0.0044455898592 0.30246477746 -0.59414518213 0.0098777442955 
0.28774024743 -0.56797555992 0.095050054336 0.21564297402 -0.57925669581 0.074233388372 0.22023614257 -0.54230940871 0.00073927342961 
0.27586528544 -0.46766955635 -0.04056291695 0.28272619272 -0.76862014701 -0.10249847348 0.26184621355 -0.61653205771 0.056286736066 
0.20862449771 -0.50320299083 0.10934924275 0.25197651861 -0.63758909106 0.13691072806 0.28993649272 -0.38870718517 -0.077065673926 
0.24992594357 -0.71938518838 -0.17074016857 0.16424618628 -0.49386579652 0.012112892662 0.017532423587 -0.40998242155 -0.0072386129651 
0.15878180164 -0.43651452888 0.00074103221496 0.1522130428 -0.45314958532 -0.10707118607 0.21908938204 -0.59317232112 -0.00047422703091 
0.22924562068 -0.65684515903 -0.057583173131 0.1893722891 -0.50401073121 0.014161583111 0.30953656084 -0.7220873872 0.10730937907 
0.18334155873 -0.54798674647 -0.00017652799243 0.12083680532 -0.46796306945 -0.00021581472758 0.1542772647 -0.4280675284 0.0051944053081 
0.19128492282 -0.45344482723 -0.0020928754878 0.21976986858 -0.51520966904 0.096123983314 0.042760230227 -0.45848839317 -0.08547505836 
0.1792462927 -0.50086054753 -0.063927285469 0.14275304 -0.62083914805 -0.034128171623 0.20149487857 -0.42757294705 0.061574546999 
0.14762384605 -0.38806851626 0.014346651033 0.082638256745 -0.51257106597 -0.05533619567 0.20218965767 -0.41802687509 0.0020138868775 
0.040037848576 -0.49939611545 -0.032187769978 0.20020236968 -0.44207792048 0.089980587762 0.18656492813 -0.50808455843 0.00033246895804 
0.18392391947 -0.5080246502 -0.012506000924 0.1867305349 -0.43873758363 0.0041946870682 0.15473177999 -0.52484083961 0.0060445021524 
0.11090223557 -0.50914048051 -0.054800284263 0.12964220552 -0.46222176448 -0.072474606422 0.19925807144 -0.42788842932 0.070125761914 
0.24118303703 -0.51902014732 -0.0025842105581 0.26086552905 -0.50498774233 8.159933698e-06 0.20791517839 -0.51847158988 0.019293783923 
0.1294997691 -0.53122927055 -0.06363287165 0.30097715036 -0.52391562332 0.0002769709844 0.21045036295 -0.48692934984 0.0023613940895 
0.18863678465 -0.48105028974 -0.0063745630676 0.23071232715 -0.47942931048 0.020769747531 0.26149693619 -0.49987209355 -0.0032935802965 
0.28217478068 -0.54032096408 -0.0077614710005 0.25907050024 -0.47119532831 0.028014337495 0.17920903776 -0.50708864629 0.020459500933 
0.16197142204 -0.48577217743 0.0012881338234 0.21599781734 -0.50043874393 0.0085303219002 0.2095222597 -0.4890770544 0.0087924802195 
0.13647971625 -0.57124417893 0.020820183056 0.50776441162 -1.4243628255 -0.14653409864 0.53033405743 -1.5107006071 -0.19155418488 
0.073672680331 -2.1568896975 -0.13127085995 0.36625764749 -1.5703361312 0.12109938758 0.293984571 -1.7248822605 0.12501646353 
0.2503322225 -0.5821220187 0.02413967995 0.40514457899 -0.91419687578 0.10832702992 0.26787808255 -1.4869308725 -0.19737051762 
0.74243723633 -1.2972918728 -0.0049139947442 0.050228293835 -0.93886054667 -0.081606031282 0.24556269486 -1.1875805597 -0.0071925345156 
0.28969851058 -0.5974986656 -0.0099586854674 0.32115654543 -1.2745115899 -0.10826762233 0.12084021581 -0.66854144362 -0.089104678271 
0.32583087106 -0.89222243904 0.054341503125 0.31677037613 -1.09864242 0.083236781053 0.15927513986 -0.99175949925 0.06831265377 
-0.010882661224 -1.0731206933 -0.06987171297 0.3147731132 -1.3278495134 0.032211152292 0.35530394339 -0.75354958312 0.049079980833 
0.34102846055 -1.1915632952 -0.13176206328 0.1356773458 -0.37330753047 -0.00039693510039 0.28004062281 -0.59887697524 0.0028947261111 
0.16785379649 -0.89689655181 0.079590666104 0.12465946887 -0.4365264792 0.23461980684 0.069011922081 -1.0080805226 0.06456861763 
0.23822399565 -0.50617340503 0.003929137242 0.30661299427 -0.9905388704 -0.00080858123433 0.19939681996 -1.1110648228 0.060210468656 
0.35401348188 -0.74890789437 0.23941402563 0.24046360471 -1.0274935968 0.19224181461 0.089608085815 -1.0968230849 0.15421513954 
0.31216861625 -0.65099044922 -0.1010262025 0.094657423379 -0.63050628699 -0.019947195451 0.11755642999 -1.0750911481 0.0033979603395 
0.18108642607 -1.0233302576 -0.087992188621 0.20062363354 -1.0872017593 -0.044603656327 0.16927822203 -0.6155934187 -0.0012860253866 
0.14840811058 -0.60480801925 -0.037124398502 0.17150000061 -0.6303748755 -0.071911467542 0.18919259034 -0.52422495893 0.073090312951 
0.35049092577 -0.64486059197 -0.023932285476 0.35234834865 -0.84108420577 0.058403530791 0.17140561626 -0.70543907353 0.037586373735 
0.25674044264 -0.61052031291 0.11010144758 0.24867652804 -0.74702239437 -0.018762931302 0.090694309975 -0.44073980917 -0.1094214588 
0.22282945963 -0.51113698433 0.096058595732 0.12407122572 -0.5253171955 0.00056221062745 0.12243133759 -0.6194121874 0.025272850986 
0.15407356696 -0.62122675612 0.060671926448 0.077750825446 -0.57096860008 0.10956534707 0.17815142701 -0.58137176747 0.0068343152325 
0.091791642396 -0.50823080119 0.018950007398 0.099739704996 -0.61866838207 -0.073870259422 0.089068560424 -0.63383338653 0.087166508678 
0.12251565494 -0.43106415752 -0.070900918837 0.092668237694 -0.52290708745 0.036223846633 0.1887655643 -0.50105542127 -0.025415603379 
0.17195571508 -0.54159857125 -0.0028469950837 0.16262252338 -0.56459926188 -5.1590877394e-05 0.16094079916 -0.55820266063 0.013232613825 
0.11026849841 -0.57258308581 0.025350038673 0.12214609369 -0.50816388857 0.017227312072 0.1450786281 -0.58043432576 0.00085028875612 
0.13388755363 -0.46511331968 0.038312763516 0.06985247996 -0.53302494147 0.067206140081 0.10039617572 -0.56674506741 -0.00090033057931 
0.15651685815 -0.52371412631 -8.4062627734e-05 0.20866720797 -0.52055434866 -0.0086165325479 0.16438641788 -0.54631815333 0.00042183959841 
0.23218063361 -0.53878381208 0.041539614403 0.13214429235 -0.5431093643 -0.018245763351 0.17482110356 -0.53923268474 0.02901639127 
0.16630454328 -0.54033756928 0.0020417533621 0.13116155819 -0.51774342922 0.026613469124 0.1388577122 -0.56557113887 -0.021007495668 
0.19117102059 -0.45274398484 0.0082018094614 0.22058492496 -0.65063830749 0.011198872735 0.16625966534 -0.54214917311 0.0069055376697 
0.18598438332 -0.49748118786 0.0059760938343 0.2111345429 -0.52673147744 0.0220666931 0.16436255931 -0.51981507103 -0.00047495942724 
0.087499967499 -1.7988551625 -0.14323727716 0.098519671956 -2.2757146187 0.029860520288 -0.067797011276 -2.0840527557 0.054802538155 
0.10779639966 -2.2696031063 0.090702323863 0.097041702014 -2.0550041095 0.030406891665 0.092069235644 -1.9436029949 0.11464030793 
0.1614810054 -0.95180072361 -0.0046701943135 0.90632713224 -2.1311750131 2.0185635316e-08 0.2582576276 -1.1447480927 0.056253802712 
0.31516853618 -2.3766794243 -0.13155146976 0.49129877993 -1.8041596465 -0.030007412523 0.38512085667 -2.0465366976 0.068812389408 
0.10753439059 -1.7783047067 0.061038178759 0.32059296522 -1.4433877752 0.001937466716 0.45755452147 -1.8662524885 0.045902859849 
0.18589964878 -0.98369860814 0.0046558269653 0.38772550067 -1.3313340954 0.0041552830318 0.38715882516 -1.3377923676 0.0015306403751 
0.41775414361 -1.5899720315 0.12134085587 0.069696943965 -1.2082637834 -0.16835591888 0.18614143784 -1.3200008165 0.19779384916 
0.21322725562 -1.2635869656 -0.180637454 0.46522801261 -0.87393899881 -6.2776883277e-06 0.87545934476 -1.3525697177 -0.14150913301 
-0.049440981188 -0.91905516169 0.032018901039 0.18847573535 -1.094826261 0.017809551345 0.02169902173 -1.0389309175 -0.022365354454 
0.3867273674 -1.0305723526 0.11318341731 0.28867718333 -0.61043041093 0.10309041139 0.21841479018 -1.0004026829 -0.10481888247 
0.22938909824 -1.2235846809 0.00051990978468 0.022717741796 -0.93369055009 -0.0012687302536 0.075249015792 -1.0834184266 0.061757911104 
0.23870859365 -1.2919629613 0.19264044298 0.23053303855 -1.1753480714 -0.011743601551 0.20090326798 -0.56808425488 -0.0012687119274 
0.16957731789 -0.52838717394 0.00052986239288 0.081588131107 -0.89862255541 0.085818655048 0.16128288748 -1.0563375493 -0.064990422654 
0.20035386383 -0.61348913964 9.432307893e-05 0.14519997968 -1.0623528901 -0.061925305617 0.13561364995 -0.87502892321 -0.010138616986 
0.23257620786 -0.63026146278 4.5324724504e-05 0.31359798392 -0.75283239949 -0.016520696309 0.026977822687 -0.95223875022 2.9412928818e-05 
0.14842633301 -0.52741079217 0.041414806428 0.1128449915 -0.83192471411 0.045163649522 0.16691387923 -0.81938403861 0.0002036817676 
0.27550290179 -0.64457299428 0.026092924606 0.15481911001 -0.97788129932 0.021447090519 0.22316160164 -0.7137260066 -0.016238864588 
0.0086654170514 -0.48575641999 -0.015233830873 0.23648490717 -0.58030792452 0.0078461407598 0.1500738447 -0.61460004706 0.0024108661615 
0.23126241316 -0.55866504043 0.086738061366 0.11788871574 -0.55095910932 0.098245642122 0.2331855334 -0.67063945747 -0.017522362853 
0.23114823063 -0.54717073797 0.0048988292138 0.071203173582 -0.7498814211 0.072073670631 0.14346821076 -0.55120826562 0.044546186035 
0.091056191366 -0.6051855516 0.05054060077 0.063423757976 -0.55481177355 0.030472533297 0.13739012979 -0.66900653318 0.00097798647603 
0.12898565528 -0.62186795945 -0.065535418975 0.18740859593 -0.59967882531 0.036155431549 0.17626795178 -0.54563994878 0.0087264192445 
0.098540635067 -0.61397261383 0.018364393596 0.23166353527 -0.55730160137 0.11229650838 0.085576392417 -0.58615578249 0.032258910486 
0.26164082836 -0.50954711409 0.0061944645087 0.12565030337 -0.54571386041 -0.00050270216796 0.13464956909 -0.54571876934 -0.021487271813 
0.15892770142 -0.53552463776 -0.0025525774605 0.037459878842 -0.81661386244 0.00094340238881 0.15065288949 -0.66008290124 -0.041992066885 
0.073622298154 -0.68274574001 -0.068123972294 0.1475663601 -0.49396303039 0.0011249976401 0.11103438827 -0.66323662862 -0.069563188311 
0.14641821255 -0.53416470827 -0.00010627924112 0.117728815 -0.57394970454 0.0017984256788 0.14703500147 -0.55473719564 -0.0014326845042 
0.13561102414 -0.58134260944 -0.069652553615 0.17707848918 -0.46412621365 0.05397786075 0.11516074962 -0.58897064632 -0.00033837145821 
0.13374674478 -0.64391936986 0.0012419324019 0.10363519065 -0.64630526512 -0.046159249537 0.12286363755 -0.57608267192 -0.012793811515 
0.21740563055 -0.58246293781 -0.010215027579 0.14312828405 -0.53832152895 0.009314018445 -0.030093041149 -0.52940085114 0.021398567045 
-0.093257962062 -2.2208552842 0.013687005682 0.001701910644 -2.2239776639 0.025624476336 0.18844974902 -2.1470328325 -0.09065723395 
-0.035044149237 -2.3662210591 0.07066340198 -0.0023482729465 -2.3019488831 0.09339256848 0.089380192076 -2.2108818573 0.029807685757 
0.24522982302 -1.992871038 0.05346210287 0.095545181818 -2.3948100435 -0.13512048557 -0.094295179468 -2.0263123618 -0.088189137773 
0.31318701997 -1.4865965813 -0.00045248490972 0.13289248966 -2.1673239807 0.097233803915 0.15362010145 -2.1147125385 0.099568679784 
0.26092118636 -2.1726806932 -0.019951198356 0.28504411813 -1.9996153698 -0.091813763116 0.13233938412 -2.2434726915 0.19841384962 
0.28845843825 -2.1159755388 0.08885465972 0.36578482346 -1.3745488758 0.00019400003308 0.32023259556 -1.5275312732 0.073580842813 
0.11500283114 -1.2932813662 -0.05052368139 0.32681607237 -1.439013332 0.05621627997 0.12864186538 -1.8807720565 -0.010384613633 
0.10184392902 -1.4149738853 0.047764856088 0.037170681611 -1.9939308917 -0.12214309869 0.13778087178 -1.8727047375 -0.00064222738859 
0.14242031713 -1.298357022 0.0017783945083 0.19571973236 -1.3330240997 0.1614657224 0.071989376839 -0.91851281862 -0.00066570589687 
0.28551607194 -1.1544429808 -0.016855193864 0.017086730836 -1.4007052133 0.057248194007 0.0023295030364 -0.99659833511 -0.025686824988 
-0.018616370363 -0.97284611781 -0.00020111974141 0.048462997781 -1.2334418216 -0.028455749645 0.17320716328 -0.71977185091 0.05437899474 
0.1420116155 -1.0589448556 0.0019541133659 0.072896773253 -1.144719586 0.13041887545 0.18645517898 -1.1355444205 0.014734459092 
0.39774856964 -0.88754323963 0.21950810457 0.10181611371 -0.92760214446 -0.041065881186 -0.048656816715 -0.9587244395 0.012054293556 
0.15939851772 -1.0764832766 -0.028100532711 -0.0058645157119 -1.026202039 -0.040109212165 -0.017257256243 -0.80971613761 0.00038746243815 
0.028630751984 -1.002789093 -0.10490147421 0.15684200684 -0.77401233023 0.026628416353 0.10661346905 -0.7595302026 0.035751102182 
0.098918082865 -1.0037339831 0.022508331654 0.045244922177 -0.94478611067 0.15577744931 0.11300313182 -0.93737585474 0.047214053265 
0.074107153011 -0.77920607325 0.01944995348 0.2164003828 -0.91219856994 0.074584940244 0.090518498778 -0.6189476672 -0.00046393279425 
0.011499010306 -0.83003183858 -0.043819663272 0.16862838688 -0.75828043538 -0.017130437995 0.11531792156 -0.68305254767 0.047894900405 
0.34564870527 -0.84414101046 0.024764407011 0.053918370134 -0.71569825804 0.048732113945 0.068254829018 -1.0813225067 0.0081453748833 