# vtk DataFile Version 4.1
vtk output
ASCII
DATASET UNSTRUCTURED_GRID
POINTS 1274 float
0.273696 -1.29445 -0.0532747 0.273758 -1.3022 0.0958725 0.279437 -1.29494 0.317493 
0.157835 -1.31609 -0.211091 0.298462 -1.29135 0.178135 0.411567 -1.23457 -0.0670624 
0.381446 -1.29109 0.322098 0.470083 -1.23549 0.493027 0.512132 -1.24367 -0.00805605 
0.637023 -1.25334 -0.00561805 0.53889 -1.34672 0.187569 0.641248 -1.22262 0.434258 
0.8524 -1.27257 -0.151217 0.843491 -1.25445 -0.0829363 0.657739 -1.29641 0.158055 
0.755446 -1.27585 0.265869 0.69615 -1.27028 0.218745 0.793861 -1.20791 -0.0448776 
0.637068 -1.20756 -0.0559929 0.672391 -1.34643 0.00779369 0.715197 -1.19071 -0.0821726 
0.690722 -1.30817 0.278236 0.391011 -1.23455 0.281851 0.615226 -1.27212 0.224783 
0.912837 -1.23663 -0.0765001 0.301128 -1.2505 0.128388 0.65753 -1.20788 0.363646 
0.814117 -1.19496 -0.113154 0.921231 -1.31394 -0.000296411 0.822903 -1.22933 0.0380618 
0.971714 -1.20857 -0.0150412 0.656927 -1.22808 0.0466741 0.557585 -1.21899 0.378499 
1.08238 -1.22284 -0.287855 1.0336 -1.24156 -0.141532 0.503972 -1.22135 0.280685 
0.789869 -1.27881 -0.012603 0.634912 -1.27383 0.285657 0.405217 -1.25071 0.137811 
0.951824 -1.2027 0.0594187 0.851371 -1.22678 -0.208433 0.79809 -1.23314 0.160131 
0.838167 -1.21213 0.108845 0.748324 -1.22102 0.216001 0.903383 -1.24345 -0.00530284 
0.985252 -1.23825 -0.236497 0.89176 -1.2524 0.29157 0.886698 -1.21793 0.230238 
0.452227 -1.2993 -0.306744 0.167823 -1.33256 0.280783 0.145282 -1.35888 -0.0654355 
0.0370367 -1.33477 0.173672 0.28637 -1.34238 0.471613 0.255844 -1.33815 0.384995 
0.239853 -1.31337 0.16495 0.379605 -1.35341 0.28512 0.153348 -1.34834 -0.272879 
0.359443 -1.41001 0.055648 0.611812 -1.28941 -0.213209 0.217783 -1.35345 -0.222117 
0.399535 -1.34728 -0.151329 0.371598 -1.35521 0.404645 0.399199 -1.29303 0.394596 
0.278119 -1.3483 0.20891 0.213413 -1.33834 0.00546799 0.48514 -1.26617 -0.187266 
0.413243 -1.3608 -0.0237444 0.583428 -1.34512 0.29988 0.43323 -1.28266 -0.142617 
0.304134 -1.28407 0.243108 0.552676 -1.36025 -0.0194429 0.376662 -1.2737 0.194418 
0.331412 -1.29838 0.0617604 0.330534 -1.26192 0.445495 0.508644 -1.22746 -0.0834154 
0.623485 -1.4128 0.09963 0.544048 -1.25118 -0.240678 0.212457 -1.28188 -0.175335 
0.568423 -1.35599 0.0415383 0.541477 -1.3013 -0.0340597 0.328004 -1.26216 0.297806 
0.451356 -1.28844 0.4503 0.579788 -1.33504 0.46994 0.446533 -1.28095 0.264222 
0.511105 -1.2995 0.291007 0.451936 -1.36112 0.112126 0.615745 -1.30369 -0.047744 
0.643828 -1.22735 -0.214021 0.972688 -1.28513 -0.284533 0.570396 -1.28636 0.172255 
0.475109 -1.28635 -0.250614 0.76459 -1.28925 0.343917 0.645524 -1.32733 0.220663 
0.577099 -1.23876 -0.0538184 0.99945 -1.26673 -0.0444072 0.741699 -1.25464 -0.0609675 
0.684798 -1.29044 0.0494387 0.876502 -1.34918 0.162045 0.603162 -1.25473 0.0797579 
0.780278 -1.23223 0.388041 0.790785 -1.24157 0.464735 0.545531 -1.2631 0.232828 
0.826035 -1.35951 0.207762 0.622018 -1.22513 -0.144789 0.687873 -1.23261 -0.0331076 
0.553125 -1.24076 0.123772 0.732419 -1.23673 0.0212481 0.808456 -1.30048 0.177985 
0.828895 -1.25045 0.340773 0.681252 -1.26711 0.329822 0.809234 -1.22666 0.532537 
0.912618 -1.24743 -0.36967 0.769596 -1.30988 0.048977 0.437661 -1.25603 0.192621 
0.723892 -1.22675 0.535002 1.16353 -1.22117 0.0117601 0.628935 -1.26635 0.530089 
0.73424 -1.22571 0.317635 0.704906 -1.24512 0.415677 0.578906 -1.24339 0.0153806 
0.958725 -1.29274 0.219418 1.10572 -1.23872 -0.167133 0.838963 -1.3053 0.044196 
0.976911 -1.22607 -0.0923536 0.90828 -1.28983 0.0617921 0.6163 -1.23687 0.147459 
1.32158 -1.19721 0.526086 0.738711 -1.25645 0.161008 0.940176 -1.2253 0.193847 
0.952298 -1.20833 0.423017 1.21195 -1.26352 -0.182822 0.905103 -1.23207 0.0977452 
1.04505 -1.2259 -0.00802407 0.863861 -1.23344 0.171979 1.10052 -1.25827 -0.0322586 
0.96335 -1.26297 0.0318217 0.0866832 -1.41341 -0.246627 0.285892 -1.3607 -0.213092 
0.430068 -1.40919 -0.397639 0.0351688 -1.35956 0.315475 0.213238 -1.32116 0.482543 
0.0966495 -1.40799 0.156653 0.216647 -1.34412 -0.402017 0.5006 -1.31856 -0.348254 
0.0870881 -1.35983 -0.381506 0.493693 -1.34762 0.459712 0.251033 -1.279 0.529061 
0.147149 -1.35435 0.379457 0.241052 -1.41179 0.297747 0.0966551 -1.35821 -0.0125766 
0.276969 -1.32007 -0.156585 0.0800929 -1.35881 -0.28898 0.472214 -1.35384 0.309866 
0.348626 -1.40768 -0.0292557 0.129613 -1.34346 0.230542 0.21323 -1.33462 0.0981092 
0.21961 -1.29566 0.29146 0.320767 -1.29138 -0.295055 0.270945 -1.34801 0.0404311 
0.422475 -1.3183 0.166107 0.0825614 -1.29265 0.215255 0.51561 -1.30058 0.419045 
0.893218 -1.3002 0.533049 0.546937 -1.35565 0.420399 0.240799 -1.2949 0.22869 
0.318161 -1.35522 0.156987 0.318846 -1.35428 0.0926271 0.367236 -1.28845 -0.232385 
0.520264 -1.33286 -0.241393 0.492615 -1.2928 0.204057 0.548565 -1.22585 0.527673 
0.644574 -1.28732 0.408231 0.776881 -1.34079 0.462082 0.423735 -1.34426 0.228926 
0.676876 -1.41468 0.136497 0.592531 -1.22163 -0.399396 0.601158 -1.35845 0.188483 
0.854196 -1.22698 -0.316323 0.391169 -1.29514 -0.298443 0.828442 -1.29972 0.28379 
0.759116 -1.28958 0.419821 0.332799 -1.28447 -0.172118 0.571325 -1.27626 0.28873 
0.670143 -1.27258 -0.166644 0.490118 -1.24964 0.145388 0.879498 -1.29189 0.214258 
0.970379 -1.38758 0.0886711 0.535633 -1.28033 0.0564644 0.994991 -1.25519 0.443877 
0.648755 -1.3302 0.341084 0.941768 -1.29606 -0.0631436 0.674102 -1.20813 -0.274681 
0.725686 -1.229 -0.145112 0.791316 -1.30416 -0.0806888 0.820869 -1.34983 -0.0453973 
0.739915 -1.31833 0.178061 0.702811 -1.35505 0.138468 0.859682 -1.29911 -0.0262872 
1.00886 -1.24926 0.0866706 1.0621 -1.27487 0.0386268 0.912304 -1.25101 -0.140191 
0.786911 -1.28877 0.114962 1.10921 -1.28474 0.394115 1.00431 -1.24676 0.188938 
0.818576 -1.24332 0.229 0.698504 -1.25826 0.110983 0.931585 -1.36143 0.216478 
0.857261 -1.2851 0.118942 1.19585 -1.36096 0.117198 0.947502 -1.35379 0.143662 
1.12379 -1.25899 -0.0980008 1.02648 -1.26081 0.275321 0.763125 -1.22438 0.0951645 
0.993096 -1.35398 0.196508 0.297586 -1.4153 -0.358846 0.199586 -1.37217 -0.327217 
0.0322034 -1.4135 -0.0345546 0.441373 -1.28069 0.531353 0.0339863 -1.41171 0.19129 
0.0880158 -1.32433 -0.106998 0.340227 -1.30686 -0.394474 0.0369042 -1.36213 0.0211632 
0.0326481 -1.34526 0.488319 0.346477 -1.40639 0.198486 0.151766 -1.41314 0.444418 
0.32396 -1.3469 0.532516 0.0881183 -1.39518 0.227302 0.326598 -1.35887 -0.265518 
0.218209 -1.35072 -0.129099 0.248351 -1.41429 -0.201727 0.12491 -1.33761 0.152988 
0.311949 -1.29152 0.50202 0.0915061 -1.33729 -0.219789 1.00552 -1.41418 0.472957 
0.23415 -1.40735 0.202619 0.218259 -1.34161 -0.0603083 0.403445 -1.35846 -0.282321 
0.150975 -1.32352 -0.00109139 0.582368 -1.41374 0.215338 0.469044 -1.4131 0.144598 
0.45242 -1.28905 0.34104 0.273939 -1.35693 0.322745 0.194362 -1.36247 0.157601 
0.311566 -1.34571 0.270406 0.802453 -1.4127 -0.22649 0.190264 -1.38807 0.264682 
0.356548 -1.34235 -0.0620782 0.161682 -1.30576 -0.12082 0.394478 -1.41526 -0.141436 
0.293213 -1.35425 -0.0873715 0.465491 -1.33982 0.396053 0.479208 -1.25488 0.394889 
0.297908 -1.35989 -0.0221566 0.358542 -1.34946 0.0162584 0.800809 -1.2975 -0.212176 
0.378983 -1.36167 0.155172 0.336254 -1.3453 -0.179578 0.352652 -1.29995 0.131957 
0.377636 -1.29364 0.256156 0.347429 -1.33269 0.21163 0.526052 -1.23576 0.436681 
0.447892 -1.29512 0.108883 0.734802 -1.25917 -0.210323 1.05806 -1.367 -0.147678 
0.310319 -1.30423 0.0039684 0.443866 -1.30487 -0.0198059 0.836506 -1.41477 -0.140682 
0.613583 -1.36229 -0.0114237 0.650035 -1.36313 0.275156 0.501592 -1.35072 0.244414 
0.518402 -1.26062 0.345292 1.14795 -1.36798 0.380277 0.628713 -1.36884 -0.0745755 
1.12048 -1.28374 -0.219192 0.725218 -1.29671 -0.11639 0.853681 -1.32462 -0.107712 
0.68698 -1.36359 -0.0514812 0.74641 -1.34157 -0.00648183 0.897889 -1.35459 -0.0555738 
1.04999 -1.23609 0.46752 0.635931 -1.31483 0.0923143 0.841127 -1.41501 0.254122 
0.652695 -1.25794 -0.0944952 0.89558 -1.35378 0.0897843 1.09823 -1.3189 -0.000974881 
1.01076 -1.31109 0.0085209 0.813328 -1.37069 0.0466089 0.753528 -1.33954 0.101915 
0.695697 -1.29825 -0.0351721 1.05053 -1.34981 0.154988 0.85485 -1.41217 0.0913064 
1.18045 -1.23144 0.410084 0.994552 -1.29002 -0.106126 1.09763 -1.40835 0.172998 
0.963313 -1.37555 -0.0367261 0.971554 -1.31631 0.0849811 0.85938 -1.20943 0.455561 
0.0341699 -1.37737 -0.227646 0.0314946 -1.41421 -0.173348 0.0354918 -1.41021 0.467891 
0.0724356 -1.41424 0.307703 0.0839215 -1.37144 0.528368 0.0998856 -1.41553 0.479603 
0.0769835 -1.41064 -0.339141 0.166913 -1.39478 -0.39495 0.384432 -1.36054 -0.403686 
0.0336249 -1.41208 -0.285885 0.0513719 -1.41294 0.0665772 0.264838 -1.4091 0.47098 
0.0355987 -1.41055 0.36389 0.240146 -1.4087 0.370403 0.142736 -1.41182 0.527068 
0.301549 -1.3542 -0.332128 0.142914 -1.41429 -0.33147 0.145814 -1.41471 -0.269133 
0.640485 -1.41014 -0.320222 0.424306 -1.41293 -0.237069 0.115874 -1.41367 0.0605063 
0.09748 -1.34393 0.422113 0.392102 -1.33181 0.529311 0.109643 -1.35189 0.315538 
0.500972 -1.4062 0.400736 0.175046 -1.37138 0.0534313 0.310247 -1.40789 -0.16835 
0.29257 -1.41419 0.0897242 0.209842 -1.40938 -0.0930714 0.355255 -1.34886 0.469557 
0.31674 -1.32228 0.415514 0.291505 -1.40986 0.249617 0.713833 -1.35034 0.51863 
0.20721 -1.35181 0.331996 0.411063 -1.35008 0.349655 0.453629 -1.34855 -0.224236 
0.383537 -1.35578 -0.218954 0.0654941 -1.35875 0.109059 0.455357 -1.40706 -0.173037 
0.243258 -1.3527 0.26729 0.263655 -1.35817 0.12856 0.420591 -1.35379 0.450572 
0.336717 -1.32092 -0.12228 0.457318 -1.41043 0.0498785 0.626538 -1.28191 -0.37551 
0.523549 -1.29204 -0.29047 0.569918 -1.41475 0.0649306 0.518888 -1.28589 0.489551 
0.648229 -1.41098 0.22538 0.550443 -1.35132 -0.296645 0.456624 -1.41397 0.209148 
0.680612 -1.36145 0.394763 1.07276 -1.29131 -0.269907 0.46302 -1.28392 -0.0797559 
0.428024 -1.34143 -0.0860686 0.501926 -1.32635 0.0149065 0.438336 -1.34184 0.0377689 
0.529371 -1.33113 0.35556 0.571488 -1.28972 0.535691 0.9428 -1.25476 0.531367 
[...]
POINT_DATA 1274
FIELD FieldData 10
VELOCITY 3 1274 double
-6.2578677221e-05 -7.5155531192e-05 -2.8753108309e-05 -0.0001603708304 1.4835731516e-05 3.7222006557e-05 -0.00014056263564 -6.3068720149e-05 0.00014036825859 
-3.2986256146e-05 -6.8718447806e-05 0.00019901281226 -9.5825420158e-05 -1.079470925e-05 4.0081492761e-05 -0.00013747639103 0.00012008342928 0.00011383179163 
-0.000248547429 -4.1844394331e-05 2.172887214e-05 -0.00029200935567 -7.3498807439e-06 -0.00015408011216 -3.0150679524e-05 1.6636127852e-05 -0.00010218809549 
4.3619117031e-05 -7.576943284e-05 -0.00012427328932 -0.00014716462386 4.071166776e-05 -6.984026905e-06 -0.00019898296291 -0.00026787772898 -7.6571976438e-05 
-2.6455540778e-05 -0.0001163587194 2.1863582357e-05 -0.00013489324877 9.2994926787e-06 -9.3429031231e-06 -5.6488186637e-05 -1.9525872068e-05 1.5231385271e-05 
-3.0423377987e-05 3.7991257729e-05 -2.8896871088e-05 -3.9865055266e-05 7.6244743773e-05 -3.5754439685e-05 -0.00025380862108 -0.00010806079494 -2.6135624672e-05 
-2.6912388392e-05 -0.00016261024081 -0.00024865326301 -0.00011034342635 8.1919880643e-05 8.5602788387e-05 0.00022020337399 -0.00010022178419 -0.00013042171218 
7.5194692403e-05 -3.3945770785e-05 -0.00014171117897 3.9896374201e-06 -4.238187418e-05 9.0474473839e-05 -0.00013785751418 -4.0680946934e-05 0.00016568971243 
-0.00014276752371 -0.00013102663436 0.0002416377035 -0.00011122341526 -6.8715554766e-06 3.373613095e-05 -7.4724180122e-05 -0.00011763819686 9.6589301227e-06 
-0.00034852424466 -0.00012411904437 -6.0378035737e-05 -8.7658125123e-05 -5.3797833166e-05 9.2399966871e-05 -0.00035752122469 -6.6297989007e-05 -7.8781970318e-05 
-0.00015854570363 -6.0448111192e-05 0.0002045417722 1.7896627572e-05 6.1612025541e-05 -0.00017385015261 -0.00026553547997 -0.00016207813207 -1.3250740414e-05 
0.000143215128 -0.00017862636404 -2.2471286781e-05 0.00018354673799 -1.7689022129e-05 3.2624194953e-05 6.3115034936e-05 -0.00020129600872 2.4904349122e-06 
-0.00016285250443 -0.00015554050501 -0.00018560782579 -7.9820263127e-05 -0.00019367277657 2.7576157507e-05 -1.3083562893e-05 -0.00015011623168 1.2740731961e-05 
0.00041047021245 -0.000250271148 0.00027941843375 -1.4025571638e-05 -0.00022373878781 -4.8013341206e-05 -1.2899374964e-05 2.7258607528e-05 -8.1966654496e-06 
-0.00014973215414 -3.1686888097e-06 -0.00011923115462 9.3582796743e-05 -3.2692688653e-05 -0.00015900228622 -0.00017708086087 -5.4211331103e-06 0.00027988309634 
0.00040071569947 -0.00014878714334 0.00021012509973 -6.520580818e-05 -0.0001442318941 7.4715346783e-05 -0.00036929895697 -8.9262990971e-05 0.00016726676216 
-0.00022520470312 -4.9402072782e-05 -5.9227186538e-05 -5.0713877223e-05 -8.5641573677e-05 -4.0460324579e-06 -1.6127406759e-06 -0.0001016310084 -1.1966660145e-05 
1.8000270885e-05 -0.00034456866531 0.00010375402355 -0.00023552070621 -9.9108888099e-05 -0.00012221166617 -0.00012245530676 0.00010453289381 3.9003416532e-05 
-6.3208606785e-05 -8.6997004132e-05 0.00013445890937 -0.00012859205577 -4.9285806969e-05 -6.9224207204e-05 0.00010716255555 -2.2517226299e-06 0.00011260356425 
1.5365796926e-05 8.1672366422e-07 1.5827909572e-05 -0.00010730972767 7.4624770585e-05 6.9749776744e-05 -5.9583035897e-05 -3.4127365655e-05 0.00034136152868 
-0.00010665671942 1.6349492619e-05 0.00013069880361 -0.00017004870164 -0.00012598033846 1.4875049205e-06 -0.00031088078113 -2.937431495e-05 -4.6348510369e-06 
-1.5422127145e-05 -5.5948010711e-05 0.00010430871457 -0.00013280577801 -0.00018585217825 0.00010887613812 -0.00013094845197 -0.00011955396551 -2.1901523214e-05 
-0.00024044348323 4.5820501827e-05 1.907617967e-05 -4.3378831201e-05 4.4163980239e-05 0.00010885207684 -0.00015754324976 4.6119364073e-05 3.4473802929e-05 
-0.00012896475253 -9.1853141524e-06 5.0633027405e-05 -0.00024835715897 5.5916128412e-05 0.00019165725418 -0.00013293671385 -1.6004375617e-05 -2.2246092279e-05 
1.5614988909e-06 -1.6669646367e-05 -6.3574038253e-06 -0.00017453761582 9.164215775e-05 -2.862857188e-05 3.743398792e-05 -0.00010508874289 -0.00015556112984 
-0.00010553181901 1.7574703692e-05 9.1605174319e-05 -0.00020036735516 -0.00011089328307 0.00010046595337 -2.7738041209e-05 3.5075544586e-05 7.8066544457e-05 
5.6126392984e-05 6.4510217337e-05 0.00014239751849 9.98774081e-05 1.1611079161e-05 3.6059340832e-05 -0.0002469329846 -1.2204296381e-07 0.00011080334407 
-0.00028425437507 -0.00011449475782 -8.1039541463e-05 -0.0002356356897 -0.00014884772555 0.00012835223741 -2.9527471082e-05 -8.8066486705e-05 3.7060721729e-05 
-2.761682945e-05 -0.00022174943133 -0.00013223864647 -7.7431487966e-05 -7.1486201057e-05 -0.00013929601368 0.00022917180537 -0.00016518781835 -0.0001239856052 
0.00011103508574 -0.00014701561151 -3.5871240685e-05 0.00011783544914 -9.4243793151e-05 0.00018405479561 0.00013336448724 -0.00020211326342 -4.3527956436e-05 
-0.00022579525859 6.0478382435e-05 -5.114683429e-05 -0.00010238703227 -1.9901914883e-05 -1.5082508468e-05 -0.00012216013367 -1.177298954e-05 -3.3192385871e-05 
3.1387466853e-05 -0.00028702469611 -0.00020837815826 2.9473243382e-05 3.1047271788e-05 0.00013803185769 -5.9472071304e-05 -0.00025828625034 -0.00026423897614 
-9.5390820516e-06 8.0523574518e-05 -3.6790889543e-05 0.00016664540651 -6.8210799171e-05 0.00016430414526 3.2131355065e-05 -1.3092235922e-05 -0.00016236275916 
-0.00010164221281 1.4199136473e-05 -2.6410225281e-05 -0.00031149142312 5.1024051481e-05 4.7240044803e-05 5.3443903699e-05 -2.2020229176e-05 -0.00017206692991 
-0.00024227092045 0.00011293963039 0.00010406854083 -6.1934047789e-05 -0.00026874545752 -7.994351127e-05 -3.1233893024e-05 -0.00010862348788 -0.00026645038263 
3.2757901181e-05 -0.00029842090386 -0.00011506843984 -5.6237401537e-05 -4.8154983459e-06 -0.00021598315131 8.0289521144e-06 -2.0019536728e-05 -0.0001537803564 
-4.0030767159e-05 -0.00023106417126 9.0583905127e-05 -3.318479599e-05 7.5969032962e-07 -0.00018031198425 -0.00014853220644 -6.4765071714e-06 7.4484811119e-06 
9.436173054e-05 -6.4570169832e-05 9.5744448839e-05 -0.00011082765999 -0.00033993548103 7.1370605679e-05 -0.00011148624512 -6.4378126163e-05 7.7336208367e-05 
2.3846141232e-05 -5.7007839463e-06 2.2384030029e-05 6.444489928e-05 -0.00012454262148 -0.00017972794116 -6.3420808122e-05 -9.5358237353e-05 -2.1457081392e-05 
3.4539923541e-06 2.9143494679e-05 -1.4539315103e-05 -5.2684001277e-05 0.00011366165422 6.8784527446e-06 -2.3688666311e-05 -0.00024437753334 -0.00018908294148 
7.5420769649e-05 -0.00037457578581 -0.00022208681099 9.9183747896e-05 2.19494912e-05 -0.00015432534554 -0.00020968563563 -3.0840121067e-05 -4.0582457419e-05 
-0.00016780328702 -0.00014351786295 8.2895935735e-05 -0.00015030810837 -3.0419400502e-06 5.1752360445e-05 -0.00010787033009 -2.9371280721e-05 -0.00012392851752 
2.2563956696e-05 -5.2643059304e-05 -0.00014815637694 6.8537241965e-05 -0.00010311687496 -0.00014166220941 -0.00027789410296 -0.00021901149211 0.00034300721925 
-0.00041727421798 -0.00015227137478 3.0918748209e-05 0.00011506167007 -0.00022355594525 -0.00023016466377 -7.9966782911e-05 5.217904332e-05 -8.1181237993e-05 
-0.00012104707555 -0.00013658927901 -4.7221252342e-05 2.451016045e-05 -3.8920146674e-05 -2.1110478896e-05 -0.00029750937817 -0.00014398451814 -0.00030804934763 
-5.1834495533e-05 -0.00020426183827 3.5442096126e-05 7.6268768988e-06 -5.5720125024e-06 5.0762489344e-05 5.1254158321e-05 8.8796503491e-05 -8.9499188345e-05 
5.0315459845e-05 1.6956351796e-05 -4.5232316073e-06 4.9588588771e-07 2.2709340229e-05 0.00020541387921 -4.122701287e-05 -7.0206414072e-05 -4.0255104423e-05 
-2.0091480708e-05 3.4972054703e-05 -0.00013280564662 -1.5997757277e-06 3.6789410039e-05 6.3030932894e-06 -0.00024875362865 4.7984884218e-05 -2.5485932356e-05 
-2.9778343497e-05 7.5472006079e-06 -2.1341782424e-05 1.5574711054e-05 4.2197075889e-05 -5.3720224234e-05 -5.2867852228e-05 -3.8660011822e-05 -7.6130400574e-06 
0.00010884745647 6.3249839392e-07 7.1694717894e-05 -4.4480496496e-05 -4.5647194052e-07 8.9052926144e-07 -5.2784363694e-05 -2.4740592074e-05 -5.358054771e-05 
-6.8995335066e-05 -3.0476678489e-05 -7.2059132286e-05 -3.0131933756e-05 -1.8734079682e-05 -3.3527537634e-05 -0.00024007911625 -1.929517555e-05 -1.2726702527e-05 
-0.00013562596366 0.00018616404598 0.00012354125861 -0.0001029855549 3.9794578216e-05 -8.1622561304e-06 -9.4962464806e-05 -7.9603478169e-05 -4.0831174472e-05 
-0.00012238321877 -5.4905814599e-06 4.8016484827e-05 -0.00020041028449 -9.1496475546e-05 0.00024933683431 3.5863588115e-05 -1.6526108737e-05 -2.3505025165e-05 
-3.4909252573e-05 2.4195285409e-05 -6.9923660568e-05 -0.00015585635308 -4.0785287522e-05 -3.8931343232e-06 0.00011674910888 -0.00027235927086 -0.00036171192616 
-0.0001267978502 -1.1311568923e-06 0.00013841566171 0.00017000403531 -0.0001470995119 -3.9301546383e-05 -0.00016001405195 1.0860273257e-07 2.6944465677e-05 
-0.00010551601998 6.3132084283e-05 -7.6850312491e-06 -0.00011550348734 5.5764628107e-05 8.2285638071e-05 -5.9748976117e-06 -1.445981444e-05 0.00010619119773 
-1.6448807507e-05 -7.5063798812e-05 -4.3908771765e-06 -5.0865668789e-05 1.2472839148e-05 9.7141375161e-05 -4.4592469254e-05 -5.4201164673e-05 -7.3052521397e-06 
-0.0001065719419 5.791842605e-05 -1.8348227409e-05 -0.00020454036417 0.00013333530107 0.00025370487136 -0.00032313277548 7.1293041527e-05 -9.2381633014e-05 
-0.00012413798025 -4.9905540315e-06 2.4349790107e-05 -0.019279533542 -0.0010268475724 -4.1065917195e-06 -0.00011763016641 3.7289315995e-05 5.0824225798e-06 
0.00028658634891 -0.00019125548949 0.00014606139613 -0.00023296338854 -3.054421994e-05 2.3287017303e-05 -9.5629617272e-05 -7.9357846744e-05 3.6568748053e-05 
-8.1793160015e-05 4.0557665058e-05 -0.00010467875936 -7.6887410975e-05 1.122472364e-05 3.1687616807e-05 -0.00015321119862 -4.2212526524e-05 -7.4875475163e-05 
-3.573354095e-05 -0.00024870195695 -1.7436002095e-05 4.582395564e-05 -8.9353738614e-05 6.5528858641e-05 4.956892922e-05 3.8769957518e-05 5.9686322992e-05 
-4.6389442126e-05 0.0001827694236 4.7394601287e-05 2.4894102186e-05 -4.9245858083e-05 1.7546169314e-05 0.00026540509421 -0.00026600342611 -0.00012743252541 
1.4257817914e-05 1.1599272357e-05 -6.0596555836e-07 3.4520888425e-05 -4.8472029047e-05 0.00013703951206 -0.0090581901611 -0.0071001624187 -0.034935739718 
-6.6999935413e-05 -0.00010723767039 -0.00019160492033 -9.6587598127e-05 -4.500436334e-05 -7.1533184127e-05 8.9310829766e-05 -4.0917459893e-05 -0.00021407696083 
1.1572341992e-06 -8.4009844161e-05 -7.7266540597e-05 -0.00027587976535 -4.9910065024e-05 7.1014498487e-05 -2.5293365199e-05 -1.0825470157e-05 0.00012402732718 
0.00010103566154 -1.5835780854e-05 -0.00022524647993 9.1285565545e-05 -0.00013535398937 -7.828691052e-05 -0.00010586921912 -6.2348363223e-05 0.00024682786362 
-5.4946849202e-05 -0.00011244788855 -0.00012606082942 -0.00026092652635 -0.00059474303453 -0.00055631600699 -6.8385766303e-05 -2.4306525842e-05 0.00013691140675 
4.3893234579e-05 -0.00010783573448 -1.2307784004e-05 -0.00012718934235 -1.4013154151e-05 1.6487832499e-05 -0.00029663288178 -0.00025190519801 -0.00037664104546 
-1.0242831135e-05 7.6251632018e-05 -0.00020377276375 -2.7382068978e-05 -7.9613111982e-05 0.00019528694625 0.00010499549427 9.1856529055e-05 0.00012423028951 
5.1333435898e-05 -0.0001578093392 -0.00020101803075 -2.4501489768e-05 -0.00020547719388 0.00010350674817 -9.8180630067e-05 -0.0001549221722 -0.00017706505827 
-0.00019981462274 -0.00061502545003 -0.00023275437725 -0.0002213468857 0.00023031471921 -6.3005576849e-05 -5.3104868215e-05 1.0621802623e-05 -1.1584742206e-05 
1.3360915365e-05 -2.4633147278e-05 -8.0384974658e-05 -6.8548609332e-05 -9.8934566283e-06 -2.2864882408e-05 2.7474097486e-05 -0.0002522829289 0.00017532476969 
4.4934612345e-05 -0.0001378791592 -6.76514213e-05 -4.9078337955e-05 -7.5204473738e-05 -1.622835464e-05 1.1291206348e-05 1.8760658448e-05 8.0374873285e-05 
-7.7524460953e-06 5.1109044356e-05 -0.00016670152005 -9.9411595194e-05 -8.4412576054e-07 -1.2484736882e-05 -0.0002977943604 0.00016222667071 -0.00020016619505 
-9.4473832445e-05 -2.700345937e-05 2.4969504376e-05 -1.8496173167e-05 7.0235397786e-05 3.124474083e-05 -7.7053443466e-05 -5.9221511782e-05 -6.4992821469e-05 
1.1706435369e-05 -0.00011587322236 0.0001072549207 -0.00061799765894 7.3975388045e-12 0.00080473983806 -0.00016264542185 4.019705376e-05 3.9752727565e-05 
-6.8358560253e-05 -5.8997518346e-05 -7.3007535391e-05 -4.0004066212e-05 0.00014926238969 -8.4252929294e-05 -0.00010855371896 1.9766450198e-05 -1.1420199652e-05 
-0.0001434118587 1.0878150861e-05 -7.605345366e-05 6.6324498752e-05 -0.0001521450211 0.00010086177591 4.6075639931e-05 3.0476019697e-05 4.0299091233e-05 
-7.100412782e-05 -4.7662830101e-05 -2.1012635117e-05 -2.3560710008e-05 1.9568778676e-05 0.0001292416043 -0.00011126376173 5.3974033217e-05 6.0080513241e-05 
-0.00029173710675 -2.7315473359e-05 2.635721391e-05 -0.00023671325724 -5.9319584743e-05 1.4429383701e-05 -0.00016632065917 1.6699588527e-05 -9.4328767095e-06 
-0.00011376151146 2.2962937557e-06 8.0259531721e-05 6.6499712587e-05 -1.4028950877e-05 -0.0001683141747 3.3405231193e-05 -0.0001923056679 3.6127217389e-05 
0.00010873599417 -6.3556198028e-05 -7.2512470435e-05 4.6028075725e-05 3.7424940947e-05 0.00014619544634 0.00013530291368 4.2822712677e-05 0.00032137643833 
-6.313531364e-06 -5.424300752e-05 2.3208298753e-05 -0.000187545017 -7.0734210623e-05 -6.5505792833e-05 -0.00015157453717 -7.778940691e-05 3.1209945385e-05 
-8.7697509019e-05 -3.773605056e-05 2.5095098332e-05 -0.00018404209956 -4.994204416e-05 -2.4847542989e-05 0.00015388893541 -0.00020891818999 -0.00011966441785 
-6.3900578572e-05 1.2364550441e-05 -3.2838477985e-05 1.9184555735e-05 -8.7069614793e-05 0.00027501274539 -9.7326636372e-05 -2.6523181111e-05 -5.9673480035e-06 
-0.00010319386597 2.4661854139e-05 2.8431017049e-05 -7.1518828933e-05 -2.4368384559e-05 4.6083907776e-05 -0.00012867136485 -0.00013404892439 5.8247021999e-05 
-1.9350280733e-05 -8.5612078073e-06 -2.4337235614e-05 9.6749058101e-05 -0.00026803893705 -0.00011873149964 -3.3133135701e-05 -3.7594712598e-05 5.1916848496e-05 
-0.00020027666616 -6.6330609451e-06 6.4291968802e-05 -0.00027509287479 5.371916211e-05 5.6411761945e-07 1.6933743472e-05 -6.0205567268e-06 6.1639194881e-05 
-1.7006017551e-05 -3.5818015789e-05 -0.00017799140631 -6.2804313697e-05 -8.4668932683e-05 0.00013412531405 -0.00017429761336 -6.1312501553e-05 2.1821655076e-05 
-0.00013914895426 -0.00026350490404 4.0961217903e-06 -6.4904875941e-06 -2.0436997551e-05 -1.127395906e-05 5.7164097168e-05 -0.00017001771962 -0.00017156781687 
5.3349263171e-05 -0.00012997967928 -6.5435607097e-05 4.3185608815e-05 -0.00017715781154 -0.00037419984596 -0.0001460070329 -2.9266973769e-05 0.00012696319294 
8.637200713e-05 4.947392852e-05 -1.5392476968e-05 -0.00031907439007 -4.7143458678e-05 2.4751626029e-05 -2.1461359218e-05 -3.0960271298e-06 4.0493920311e-05 
6.4799206376e-05 2.091353259e-05 7.4592946933e-05 5.5039243654e-05 1.03446686e-05 -3.1182846384e-05 -0.00030598362454 1.5494290484e-05 -5.513202402e-05 
0.00015525856735 -0.0001872089656 -0.00012214720876 -0.00010417718101 -9.0030125827e-06 3.589874204e-05 -4.705621267e-05 -0.00026019052204 -0.00025038875025 
1.7964741425e-05 -9.8963408176e-05 -3.8266141609e-05 0.0001521482741 -0.00014499055952 8.951375213e-05 -0.00017977581312 -4.856110548e-05 0.00026602429695 
-0.00019309573937 -9.8729609849e-05 -0.00016664389652 6.477887302e-05 0.00014918243498 -8.4552316707e-05 -6.8622928352e-06 7.7885621648e-06 0.00021261923785 
0.00025318328015 -0.00027286535833 1.99256006e-05 9.3965883199e-05 -0.00013889798791 0.0002099822768 -0.0003842702194 -3.5554846417e-05 -0.0002398241535 
-0.00013133193435 -4.716958046e-05 0.00011581381349 -7.3287081128e-05 0.00012209400763 4.7646366536e-05 -0.00026241907381 -0.00017152145078 -0.000382499907 
8.3513109496e-06 -2.8946850947e-05 -0.00021137009841 -0.00013321944134 0.0001655824678 -7.9131675603e-05 -1.4275386487e-05 -3.3198228513e-06 5.885788365e-06 
-5.3744686453e-05 3.5150293326e-12 0.00021754223253 -0.0001859213588 9.437251273e-05 -3.7892522518e-05 0.00012821715084 2.173581357e-05 0.00038668610478 
0.00010144885887 3.2220900748e-05 -0.00012497257096 -4.4151642988e-05 5.2512024619e-05 -2.5528427546e-07 4.26648973e-05 1.7140247923e-05 1.0191686328e-05 
2.8077543616e-05 3.514841387e-05 -3.5326237325e-05 -4.0671710406e-05 -1.7065691302e-05 -4.9317876533e-06 -0.0002004478525 -9.9969680586e-06 -5.3029845866e-06 
3.6804240532e-05 -1.1284346862e-05 0.00014490038728 0.00013470318058 9.9775732877e-08 6.8418200773e-05 -0.00018787724407 -5.286776301e-06 0.0002487508161 
-0.00020674399464 -0.00012143059765 0.00033775547322 -3.6375411524e-05 -7.8812887229e-05 -4.7954681452e-05 -6.8134797283e-05 0.00011855732866 4.8381622237e-05 
-0.00013623324462 -5.4087166414e-06 -2.9736411726e-05 1.7995766049e-05 7.9676634104e-06 -5.3642412475e-05 -0.00011898598655 2.4014468479e-12 -0.00011503410503 
1.8648154552e-05 2.9531827881e-05 -3.8421401184e-05 -8.8613899885e-05 -4.2171452446e-06 -1.6785253271e-05 1.8503891309e-05 -6.4423862505e-06 0.00012953962264 
5.3803371123e-05 -5.9341047324e-06 -0.00023253520959 -1.1339397409e-05 -4.0368352495e-05 -0.00012950271454 -9.0625241171e-06 3.402890036e-05 4.3635156195e-06 
8.3339010163e-05 -1.6799741641e-05 -3.7020494549e-05 -5.3147168774e-05 -0.00019740901635 1.0942957709e-05 -0.00015149676805 -4.1825488686e-05 0.0001118361316 
-3.5752514583e-05 5.7428318256e-05 3.9481227951e-05 -9.6894030351e-05 -9.5273367979e-06 4.9918638631e-05 7.8916352753e-05 4.7707555934e-05 0.00012630950359 
-7.7136380288e-05 6.1491658031e-06 6.5277461938e-05 -0.00030227906272 -3.0034515313e-05 -3.3462112751e-06 -1.5361780027e-05 1.0872138885e-05 5.7177929117e-05 
-0.00017504178081 -3.3558616086e-05 -0.00015114278338 -7.9372653162e-05 3.1062296359e-05 -6.047875105e-05 -3.4587727474e-05 -4.4604786308e-05 -5.7875701661e-05 
-0.00015840556587 2.8983377074e-05 -3.0594421743e-05 -4.1034611832e-05 -1.1071682737e-05 -1.4761885845e-06 -0.0001762653014 -6.8887474306e-05 0.0001025246735 
-7.6512614281e-05 1.2195524793e-05 2.7397646774e-05 -0.00016037556872 -0.00015856998159 0.00017316339869 -0.021444257832 -0.01257160612 -0.026071820297 
-0.00016881504706 4.8329511007e-06 -1.1177540589e-05 3.8786244936e-05 -2.8745300802e-05 -5.0814183354e-05 -0.00030619931266 -1.3337402828e-05 0.00015170621229 
-0.00029882728423 5.8188820269e-05 9.4817618008e-05 -7.4846305601e-05 0.00013013903633 -0.00014548415854 -5.2711714054e-05 -4.23269433e-05 -4.1588460079e-05 
-0.00014522551468 5.3401710988e-05 9.7404634356e-05 -0.00010225000228 -0.00012086936591 5.86395517e-05 -0.00028823165579 0.0001186464509 1.9251708244e-05 
-0.00026968841931 8.4277092399e-05 0.00018014805911 -5.1776454589e-05 2.2912411458e-05 -2.7458390836e-05 -9.9625218863e-06 1.5989929288e-05 -2.3462060761e-05 
-0.0001918911297 -0.00027503455615 4.5921745701e-07 -9.8134548181e-05 -5.4085858166e-05 5.2795181755e-05 -2.6345876146e-05 -0.00015909970336 -8.91447493e-06 
-4.3850195961e-05 -5.2054026901e-06 -5.7307534487e-06 -0.00022411328015 -7.9887385794e-05 3.8570746019e-05 7.7954744726e-07 2.0867482817e-05 -2.0829065782e-05 
7.7903854934e-05 -0.00017453208086 -0.00029462080125 -0.0002139681374 -0.00023353244732 -0.00028094075843 -0.00013468415936 -9.4275563469e-05 1.648288127e-05 
-2.5492288126e-05 3.5574569646e-05 -3.817747249e-05 -0.00011126941305 1.8831008029e-12 4.9845776732e-05 4.9929815461e-05 -6.8997343368e-05 -0.00018730571789 
-2.7489901418e-05 0.00019046408009 -7.7371339673e-07 -0.00039342673268 -0.00013721574989 8.7366475523e-05 -2.9161910316e-06 1.3631082935e-05 -0.00012397621333 
-6.2056842285e-05 -8.4001990179e-05 0.00018796281885 -2.4559374781e-05 -5.4836956471e-05 -1.2474270738e-05 -0.00013732283671 -2.8684507363e-05 -2.6918555154e-05 
0.00026223365635 3.9350651399e-05 -0.00011748096453 1.2599110608e-05 8.8218119554e-05 -9.7599474916e-05 -0.00011590993456 -2.684949878e-05 -5.3090522344e-05 