# vtk DataFile Version 4.1
vtk output
ASCII
DATASET UNSTRUCTURED_GRID
POINTS 1274 float
0.335876 -1.2974 -0.0511744 0.344769 -1.29568 0.122186 0.371114 -1.29242 0.286875 
0.200431 -1.33788 -0.183001 0.556202 -1.20174 0.0493452 0.584021 -1.26868 0.00417887 
0.436479 -1.28814 0.31404 0.580305 -1.22715 0.441713 0.676054 -1.21538 0.0349891 
0.744377 -1.22907 0.0523414 0.601227 -1.35844 0.180206 0.717055 -1.22585 0.402139 
0.902645 -1.09413 -0.0387333 0.835405 -0.777395 0.0166075 0.809449 -1.2197 0.165778 
0.850091 -1.21859 0.270255 0.840304 -1.13338 0.228482 0.859803 -0.661217 0.0862628 
0.806112 -1.11229 0.0158811 0.763339 -1.34345 0.0574895 0.848324 -1.07002 0.0519146 
0.800369 -1.25475 0.230172 0.792047 -0.973733 0.289496 0.777195 -1.19192 0.229573 
0.873418 -0.597319 0.0176095 0.760672 -1.18254 0.0911183 0.875832 -0.720334 0.283263 
0.888605 -0.513033 0.0343881 0.879701 -1.00846 0.0756136 0.887638 -0.84176 0.140599 
0.936499 -0.58491 0.0479439 0.825974 -1.03061 0.161556 0.847634 -0.933963 0.256101 
0.966351 -0.660257 0.0501556 0.993476 -0.879951 0.0265436 0.843415 -0.756288 0.176017 
0.897031 -1.13867 0.0321557 0.856143 -0.823432 0.239019 0.84815 -1.06206 0.223379 
0.895029 -0.50726 0.112632 0.915524 -0.701039 0.0324891 0.914789 -0.840934 0.211197 
0.901511 -0.588865 0.193358 0.869684 -0.614977 0.265803 0.896303 -0.581674 0.119204 
0.979353 -0.708665 -0.0179896 0.903303 -0.531993 0.259806 0.893644 -0.521191 0.178612 
0.551403 -1.30237 -0.282674 0.16731 -1.34158 0.28559 0.174273 -1.37314 -0.051342 
0.0463223 -1.32439 0.164618 0.318835 -1.34772 0.47122 0.283693 -1.35512 0.396772 
0.266044 -1.31317 0.177517 0.424912 -1.34694 0.27653 0.158305 -1.35546 -0.235866 
0.385594 -1.41001 0.0551002 0.726461 -1.29786 -0.150237 0.2742 -1.34785 -0.221511 
0.444225 -1.34997 -0.134115 0.409075 -1.33517 0.393353 0.463412 -1.29351 0.386763 
0.316573 -1.34962 0.208643 0.242725 -1.34888 0.0411823 0.642001 -1.20031 -0.0839494 
0.470906 -1.34929 -0.00190302 0.638741 -1.34764 0.283406 0.486459 -1.29231 -0.117408 
0.447784 -1.23103 0.240263 0.638484 -1.36007 0.0102913 0.550511 -1.22972 0.224476 
0.41115 -1.30021 0.098608 0.391229 -1.27982 0.426599 0.625283 -1.27004 -0.064779 
0.65388 -1.4128 0.102793 0.691698 -1.23461 -0.190563 0.328798 -1.2769 -0.166968 
0.669868 -1.35016 0.0642119 0.655569 -1.27805 0.0123403 0.658932 -1.22233 0.273714 
0.525698 -1.26765 0.422767 0.625272 -1.32887 0.446503 0.50629 -1.28126 0.253643 
0.567784 -1.26625 0.288655 0.515498 -1.32522 0.126561 0.722094 -1.2648 -0.00239924 
0.806893 -1.20255 -0.154696 0.98384 -1.27689 -0.233114 0.691914 -1.30137 0.168248 
0.609779 -1.26752 -0.164779 0.806143 -1.25955 0.321481 0.742155 -1.26814 0.202719 
0.715837 -1.14965 0.0180792 0.968151 -0.782399 0.0250263 0.815601 -1.17474 0.023523 
0.822522 -1.22996 0.0692241 0.924821 -1.26874 0.197129 0.767883 -1.25797 0.112747 
0.887248 -1.17897 0.320143 0.885421 -1.10692 0.334307 0.714968 -1.23733 0.253592 
0.889913 -1.3271 0.208048 0.837673 -1.11746 -0.0396133 0.84298 -1.16572 0.0806175 
0.736036 -1.21675 0.169682 0.87577 -1.11086 0.113667 0.878588 -1.20888 0.19879 
0.955584 -1.11279 0.29777 0.82646 -1.09238 0.282586 0.879107 -1.16863 0.406818 
0.966589 -0.942825 -0.0694692 0.884795 -1.20764 0.0346734 0.775603 -1.15672 0.146827 
0.889662 -0.861433 0.302998 1.04852 -0.729887 0.0735711 0.9034 -1.03297 0.288876 
0.900259 -1.09268 0.25664 0.848816 -1.01528 0.325315 0.79654 -1.11064 0.0905234 
0.958282 -0.743845 0.217215 1.02731 -0.952629 -0.00380573 0.909261 -1.18376 0.100676 
1.00912 -0.584816 0.0483386 0.937542 -0.852853 0.0859355 0.889431 -1.00962 0.161624 
0.976249 -0.562338 0.263016 0.906086 -1.02147 0.226746 0.977198 -0.561975 0.181734 
0.918701 -0.615204 0.321643 1.04792 -0.699877 0.0117657 0.941689 -0.638643 0.140081 
0.975124 -0.706205 0.128403 0.935716 -0.644615 0.21755 0.980703 -0.757428 0.0826767 
0.915629 -0.736235 0.0939519 0.0923581 -1.41341 -0.256546 0.344443 -1.35553 -0.207884 
0.440273 -1.40919 -0.397649 0.0351691 -1.34678 0.328441 0.237905 -1.32381 0.478885 
0.104162 -1.40799 0.176432 0.220449 -1.34535 -0.381972 0.559881 -1.32899 -0.344212 
0.147137 -1.35274 -0.349452 0.510881 -1.32824 0.468154 0.290608 -1.28363 0.510201 
0.17079 -1.34919 0.368774 0.258681 -1.41179 0.295663 0.108892 -1.35814 -0.00135562 
0.321345 -1.34291 -0.127486 0.101096 -1.34896 -0.280782 0.51612 -1.35515 0.308888 
0.363868 -1.40768 -0.0250351 0.165699 -1.33326 0.222093 0.242756 -1.35209 0.105076 
0.266805 -1.29603 0.303094 0.404457 -1.28537 -0.271227 0.304215 -1.35259 0.0708903 
0.476149 -1.30078 0.177263 0.17212 -1.27531 0.164142 0.584318 -1.30057 0.400016 
0.904891 -1.29231 0.533005 0.565902 -1.34785 0.437981 0.314335 -1.28257 0.220303 
0.355427 -1.35089 0.15541 0.371876 -1.35165 0.0926943 0.545062 -1.29256 -0.178825 
0.564227 -1.33499 -0.231951 0.581485 -1.28976 0.212776 0.586738 -1.22273 0.526634 
0.717668 -1.29234 0.420629 0.792628 -1.33747 0.470934 0.480401 -1.34833 0.225999 
0.707628 -1.4147 0.144665 0.631808 -1.24161 -0.271139 0.686051 -1.36782 0.190785 
0.846439 -1.24294 -0.277105 0.643766 -1.19437 -0.161909 0.920446 -1.2446 0.311905 
0.783367 -1.26545 0.416232 0.487737 -1.245 -0.0150462 0.669614 -1.2824 0.25512 
0.767754 -1.25043 -0.0970377 0.604875 -1.24 0.164901 0.914266 -1.16656 0.252425 
0.972688 -1.27909 0.144011 0.658028 -1.26018 0.113316 0.987876 -1.05547 0.308042 
0.754092 -1.29275 0.272679 0.915581 -0.925558 0.038246 0.894019 -1.11239 -0.104165 
0.825666 -1.19726 -0.0895517 0.868736 -1.17403 -0.0294617 0.886998 -1.26637 0.012887 
0.851092 -1.27736 0.191739 0.793042 -1.30787 0.18999 0.923255 -1.06998 0.0233586 
1.00301 -0.867216 0.114622 0.99237 -0.995355 0.0433652 0.969551 -1.03492 -0.0106775 
0.871485 -1.23021 0.135055 0.991374 -1.1603 0.328764 1.00885 -0.763253 0.170275 
0.918606 -0.914391 0.257703 0.844628 -1.15553 0.162115 0.995947 -1.23294 0.214021 
0.906364 -1.0787 0.181814 1.05382 -1.23469 0.172759 0.941855 -1.13972 0.151087 
1.0398 -0.820854 0.0461313 0.972783 -0.85596 0.235403 0.911463 -0.924149 0.161677 
0.973584 -1.05447 0.206871 0.300721 -1.4153 -0.359071 0.210193 -1.39223 -0.329035 
0.0321904 -1.41349 -0.025284 0.489608 -1.27876 0.531341 0.0339722 -1.41171 0.190375 
0.116521 -1.33712 -0.0909593 0.347887 -1.30952 -0.394455 0.0369058 -1.36861 0.0285071 
0.0621869 -1.3181 0.533199 0.364211 -1.40636 0.19672 0.160623 -1.41314 0.437931 
0.338509 -1.32972 0.532516 0.092603 -1.38471 0.24232 0.365913 -1.3483 -0.270195 
0.251791 -1.36469 -0.128056 0.271557 -1.4143 -0.203017 0.136083 -1.34174 0.157522 
0.363221 -1.29356 0.485356 0.0932616 -1.35789 -0.196967 0.999768 -1.41418 0.457815 
0.245331 -1.40735 0.205489 0.252372 -1.34713 -0.0492204 0.440102 -1.35334 -0.269174 
0.171803 -1.3424 0.0155304 0.602051 -1.41374 0.211021 0.487135 -1.4131 0.142656 
0.512909 -1.28394 0.330803 0.297111 -1.3535 0.329697 0.20996 -1.3556 0.16595 
0.341294 -1.35069 0.278007 0.824023 -1.4127 -0.208021 0.213735 -1.37664 0.264316 
0.399587 -1.34415 -0.0349409 0.202218 -1.30935 -0.0876989 0.419842 -1.41526 -0.133299 
0.317587 -1.36594 -0.0603232 0.525888 -1.33325 0.384126 0.574176 -1.25517 0.357264 
0.332184 -1.35131 0.00707318 0.413704 -1.34625 0.0360393 0.830492 -1.31801 -0.147977 
0.415115 -1.35908 0.144743 0.379995 -1.36243 -0.157043 0.403877 -1.28093 0.166556 
0.439678 -1.29455 0.234664 0.400116 -1.34198 0.209893 0.642999 -1.22209 0.348463 
0.529839 -1.26517 0.150489 0.786211 -1.26348 -0.180228 1.04241 -1.36654 -0.116209 
0.38283 -1.28873 -0.00184496 0.520038 -1.29569 0.0010083 0.878802 -1.41478 -0.0715474 
0.713923 -1.33099 0.0154323 0.702775 -1.33987 0.248618 0.563572 -1.34313 0.256313 
0.629803 -1.2764 0.304901 1.09346 -1.35749 0.373132 0.70522 -1.35967 -0.0404494 
1.05747 -1.00009 -0.0488635 0.820098 -1.25329 -0.033315 0.92968 -1.20498 -0.0212396 
0.767002 -1.35349 -0.0050122 0.852352 -1.31295 0.0510364 0.918045 -1.34071 -0.00165186 
0.998437 -1.1084 0.36891 0.768788 -1.32702 0.121512 0.859683 -1.3695 0.288836 
0.764438 -1.20509 -0.011233 0.950221 -1.24582 0.085739 1.03947 -1.2187 0.0677016 
0.972329 -1.17976 0.0343571 0.882834 -1.26071 0.0831993 0.835135 -1.31313 0.139388 
0.785013 -1.28311 0.0330048 0.981711 -1.20677 0.146424 0.916196 -1.30377 0.118948 
1.00537 -0.635899 0.222912 0.999646 -1.22342 -0.0213972 1.02199 -1.29637 0.19119 
0.951029 -1.25932 0.0149032 0.954409 -1.07251 0.0926041 0.924627 -0.98806 0.338054 
0.0341699 -1.38443 -0.224536 0.0315057 -1.4142 -0.162229 0.0355025 -1.41021 0.468481 
0.0746942 -1.41424 0.304595 0.0909438 -1.38188 0.528373 0.108213 -1.41553 0.472299 
0.077477 -1.40631 -0.338989 0.168927 -1.40277 -0.394963 0.391567 -1.36362 -0.403687 
0.0336249 -1.41208 -0.286434 0.0672783 -1.41294 0.0728353 0.285202 -1.4091 0.467003 
0.0351464 -1.41055 0.358059 0.243698 -1.4087 0.365838 0.155617 -1.41182 0.53197 
0.334424 -1.35347 -0.3338 0.142895 -1.41429 -0.330266 0.154417 -1.41471 -0.268933 
0.649246 -1.41013 -0.31505 0.437114 -1.41293 -0.236376 0.131593 -1.41367 0.0805911 
0.127027 -1.36139 0.417068 0.40823 -1.33347 0.529311 0.110018 -1.34566 0.326424 
0.51427 -1.4062 0.399292 0.192661 -1.38422 0.0695495 0.328995 -1.40778 -0.164992 
0.320395 -1.41419 0.0975874 0.236502 -1.41107 -0.0730613 0.397002 -1.34463 0.458823 
0.347312 -1.33093 0.412811 0.307491 -1.40986 0.245882 0.734986 -1.34804 0.526419 
0.226917 -1.34967 0.325122 0.451721 -1.35168 0.343196 0.495585 -1.3468 -0.22054 
0.428316 -1.35878 -0.202471 0.0778086 -1.34987 0.102009 0.474718 -1.40706 -0.175974 
0.274998 -1.35356 0.267969 0.296635 -1.35116 0.138539 0.459535 -1.34812 0.430585 
0.384509 -1.33821 -0.0998567 0.489547 -1.41043 0.0479646 0.696499 -1.28132 -0.34785 
0.611862 -1.30329 -0.257564 0.588406 -1.41469 0.0655418 0.570195 -1.28835 0.483543 
0.662344 -1.41098 0.239426 0.590841 -1.35742 -0.287578 0.478974 -1.41397 0.207798 
0.72706 -1.35243 0.379039 1.03879 -1.28465 -0.181884 0.527351 -1.27888 -0.062745 
0.468739 -1.34833 -0.0670267 0.5773 -1.34218 0.01457 0.515642 -1.34317 0.0503849 
[...]
POINT_DATA 1274
FIELD FieldData 10
VELOCITY 3 1274 double
-0.55236148299 -0.12462832225 -0.00010549742166 -0.56625612553 -0.15180242445 -0.0042689886819 -0.056227054916 -0.13452793366 0.003591993638 
-0.032826545565 -0.043683268168 -0.28796837542 -1.4261212534 -0.22462840435 -0.095593322984 -1.1275966151 0.64256583609 -0.30625561016 
-0.38620809687 0.0096589791813 0.11444855602 -0.51270617647 -0.053058958154 0.67091624551 -1.2973928001 -0.56567950557 -0.32844459241 
-0.97985536915 -1.0724957162 0.33672957516 -0.6111503543 0.061397403609 0.25701677348 -0.88814104795 0.12755538688 0.37950811807 
-0.14836786433 -4.1464707759 -0.39926729253 0.35041661959 -4.2169227883 -0.085161457284 -0.73512754598 -0.71140848294 -0.26764776323 
-0.015867632028 -0.64164066367 0.079630081286 -1.1134699084 -2.3595247309 0.47081912587 0.38552951706 -4.0244111533 0.16993752057 
-1.2951020828 -2.5113111782 -0.42363181533 -1.1035785415 -0.86695526085 -0.24221741795 -0.52075481329 -2.5713714066 -1.0604925088 
-0.18228423736 -0.35681239127 0.017669174981 -0.054684878572 -4.9664960808 0.08909801566 -0.41724593016 -0.35447707096 0.15652422201 
0.22795777704 -4.0651772723 -0.23648277033 -1.2299856898 -0.89767161621 0.29546384738 -0.0040553289588 -4.395591983 0.093725266548 
0.92264820556 -3.9173141085 0.00353693486 0.46842288907 -3.3326709625 -0.15095746963 0.37808973 -4.5622147946 -0.022274796715 
0.19494318079 -3.9096124854 -0.16053373495 0.12977856984 -5.0964162573 0.050628154428 -0.24291741684 -4.9481761194 0.17606900187 
0.17764489043 -4.4143032631 -0.48764394494 0.44144250415 -4.8512703846 -0.17614774503 0.41764998093 -4.5616925473 0.18124086079 
-0.52117403092 -2.4941697758 0.063883769762 0.17700893428 -4.6304205811 0.17952682406 -1.2569499506 -3.9501680491 -0.4902715326 
1.0213521618 -3.9630000982 0.073719594358 0.12740858141 -4.5067379201 -0.18958225512 0.12781980489 -4.7229559664 0.13518329766 
0.77390213003 -4.0896530118 -0.0071248683843 0.33472347506 -4.1756014677 -0.0044041049303 0.75950425939 -4.0442630583 -0.0023063022027 
0.23186666686 -4.3597421142 -0.3488692616 0.91157916429 -4.0606888576 0.045456537294 1.0104181884 -4.0591349389 0.11050799712 
-0.30359622541 0.20428405351 -0.25905407255 0.020110739078 0.047141580341 0.0073345076825 -0.18600808492 -0.019061029165 0.022808930976 
-0.36546289067 0.073235685207 -0.079208101122 -0.26083107565 0.069739726519 -0.011265461834 -0.24214573247 0.20991419173 -0.065830119012 
-0.24391724698 -0.0047131415505 -0.15708462038 -0.23778342532 -0.027014601626 0.12627783138 -0.25163044283 -0.018388592886 -0.12278702456 
-0.15301780416 0.0075731373923 0.043914852021 -0.25689583511 0.11300365509 -0.41939194139 -0.16330930947 0.0095392034667 0.099342002057 
-0.18712713479 0.063938084652 -0.13922407136 -0.29676562682 -0.047121405514 -0.020682968895 -0.35905781967 0.09726677403 0.013700591299 
-0.23267571575 -0.12914531552 -0.10202470878 -0.23761810751 0.027551170316 -0.041606753229 -1.1045895563 0.24367212289 -0.45704130561 
-0.37486787606 -0.0058970839704 -0.085311594188 -0.35434578176 0.074248999938 0.18333369749 -0.083092276612 0.03078740317 -0.28019189276 
-0.42000921283 0.30142601628 0.0098213651943 -0.76665532404 0.35723561825 -0.47134343236 -0.93932121285 -0.16163906511 -0.30052196018 
-0.51996881074 -0.092226434768 -0.08674128439 -0.017925918659 0.028155369996 0.065119349242 -0.71553547372 0.11762938215 -0.35884631133 
-0.10974805572 2.9907113405e-14 -0.062452241948 -0.52132158236 0.29951525976 -0.38867418322 -0.67628004208 -0.11736583513 -0.37243289767 
-1.0927161066 -0.5567207573 -0.087696737367 -1.412109225 -0.54909925932 -0.27665350333 -1.5622098484 -0.12223104773 -0.31346258015 
-0.47085728585 0.097262147672 0.20802230279 -0.41626648465 0.16520231358 0.24899028325 -0.35125174404 0.14971148791 0.027437232224 
-0.25737357115 -0.087731962305 -0.019427142229 -0.22707980581 -0.25276506322 -0.075593428687 -1.3915383853 -0.36032998771 -0.046333726505 
-0.3809756976 0.18209467814 -0.47148307434 -0.079012006578 0.07330956047 -0.4543649715 -0.54004107966 -0.042672886313 -0.003317760195 
-0.68559947924 -0.4047623717 -0.23106718141 -0.28105013607 -0.27443405981 0.23276139632 -0.39859205503 -0.578554983 0.36654174464 
-1.0239877795 -0.5500824718 -0.33851392718 0.59633376421 -4.4511792234 -0.17399109731 -0.071851031996 -2.3459093824 -0.070348693622 
-0.49875975787 -1.3008068546 -0.60059818849 0.12238401312 -0.99065722342 -1.0044968797 -0.83303031486 -0.44552341541 -0.45598772733 
-0.5554560477 -1.0458322803 0.82024411369 -0.52618695169 -1.1875151555 0.77374676162 -1.694927351 -1.0659326555 -0.12152257354 
-0.16485510376 -0.78051540347 -0.67919546103 -1.2117067102 -1.2273040472 -0.47069247455 -0.41342030413 -1.4331169547 -0.033236651627 
-0.9351265398 -0.75678973574 0.19632334986 0.19369530772 -1.2071020199 -0.32323018866 -0.66165172997 -1.5754344144 -0.012517669736 
-0.47576274639 -1.3253213537 0.56841428281 -1.4291629067 -2.3634473052 0.46917692622 -0.098673914001 -1.3725056517 1.2612336961 
0.25108915745 -4.7948063217 -0.43543956988 -0.13389718506 -2.6818848247 -0.2886040508 -1.7079985771 -0.60405932953 0.33024638247 
0.37360949168 -4.7655669324 0.22482149793 0.46849420239 -4.5032323827 -0.17818987352 -0.39515816979 -3.0169633118 0.67352887421 
-0.7677711409 -2.7379289547 0.13934701513 -0.77199666678 -4.6484967615 0.85638364427 -1.1496318276 -1.2576019653 -1.2217780548 
0.47284892515 -4.5778785885 -0.021635894298 0.14935130419 -5.1205188575 -0.16258985988 -0.61708476861 -1.8318330757 -0.19617824165 
0.2225517967 -3.9140295267 -0.090735085052 0.32586262572 -4.7964586358 -0.097315462321 -0.57703536696 -3.2950582955 -0.30750608269 
0.8688673741 -4.1841717383 0.051289149926 -0.53158456356 -2.7124804253 0.61797792813 0.11810191546 -3.8891493594 -0.0038227523781 
0.21568215999 -3.9173755048 0.30938790247 0.22800879158 -4.4025655989 -0.1907430994 0.61088901856 -4.3057889231 -0.096343413663 
0.35523322355 -4.5262614686 -0.10430995528 0.47773382465 -4.3091383324 0.01595304136 0.47929680533 -4.5415887706 -0.090385667419 
0.36069309922 -4.4542404304 -0.22689709531 -0.035457064186 5.3394259319e-05 0.13634356495 -0.3401874735 0.056887894197 -0.045548000036 
-0.12490459518 -0.00076663289139 0.00029611307741 0.00019811082357 -0.030449295227 -0.084667096773 -0.32906542451 0.021719971614 0.082531352104 
-0.021349142801 0.0037861557853 -0.10874502293 -0.2513424993 -0.025779617676 -0.16869120586 -0.25992789085 0.030186567404 -0.05158851951 
-0.19087533939 0.11625972456 -0.17193105802 -0.25493330758 0.089803648924 0.0027720547904 -0.30912869482 -0.069304125578 0.17919146925 
-6.4793646212e-06 -0.032036675313 -0.0099171934341 -0.081879394303 -0.0042177640566 0.055425177705 0.17137700178 -0.11199566333 -0.12543299592 
-0.15979997112 0.011761903296 -0.076960422615 -0.2229028798 -0.089875586948 -0.17046494707 -0.18679989474 0.025686432177 0.048051735151 
-0.1772889439 0.0043268824223 -0.023959709861 -0.16190330806 -0.0085653848812 0.0056191748008 -0.16296841446 0.058757594511 0.022112004873 
-0.35302147369 0.14074897074 -0.12911173682 -0.46746782239 0.17172965227 -0.088933153706 -0.2761774633 -0.065431984074 -0.15958663679 
-0.49371758139 -0.39653165527 -0.27653549454 -0.28416033602 0.15033543733 0.10254261949 -0.39043275844 0.23874625979 0.15701974332 
-0.075570774935 0.082643865793 -0.0063198333021 -0.32504953355 0.028565375449 -0.073126047083 -0.64544598966 -0.17086480597 -0.11641946814 
-0.11416154114 -0.052346917976 -0.02044300575 -0.41444541252 -0.18708625416 0.022555387013 -0.68251483248 -0.19420956705 0.04090720978 
-0.46508757395 0.14602607459 -0.25584627176 -0.43101312548 0.048584858976 -0.048825183341 -0.52533320387 -0.029628008215 0.65834267212 
-0.42723834182 0.01258678374 -0.012859545188 -0.39357803894 -0.45660167836 -0.020192447962 -0.65465086364 -0.025501273513 0.18780243776 
-0.27080310235 0.011539988144 -0.064883140468 -0.792905922 -0.89513385456 -1.3764014947 -0.34893440247 0.0066920507518 0.177959461 
0.029247525793 -0.049229983146 -1.0273394915 -1.7900717377 -0.39809469283 -0.94186020041 -0.619342915 -0.9409220497 -0.35590793675 
-0.83577539609 -0.93688135078 0.44201643289 -0.88595289828 -0.17283677757 -0.68724841969 -0.24819585198 -0.10197172438 0.15851960094 
-0.98182287498 -1.3935925171 -0.90761193734 -0.72623134817 -0.20795719295 -0.48213103854 -0.22308440766 -2.6991223722 0.65815792498 
0.48812569854 -2.0453139045 -0.37575623562 -0.737054536 -0.24038484712 -0.05450955606 -0.23906618784 -1.5774172466 1.2487981562 
-0.32768167191 -0.068752895721 0.1531358886 0.36603441502 -4.7236062678 0.010064477391 -1.3302841415 -1.3934193783 -1.602960059 
-1.4989799022 -0.55972254112 -0.71465806549 -0.99109726119 -1.1252968378 -0.4612699577 0.5802700861 -2.1425007958 -1.8515338897 
-0.13936174812 -0.11641281101 0.12436394276 -0.25594071919 0.063178364828 -0.35761290686 0.30113880494 -2.9318749478 -0.44432708223 
0.29013659337 -4.8170259114 -0.0044902666562 -0.11904795896 -5.1053372355 -0.2058150264 0.75974506696 -3.9452434096 -0.8192741753 
-1.1419536832 -1.3073111564 -0.066690571782 0.14959011743 -0.86347811557 0.56722898971 0.41548860719 -4.6386549061 -0.067006800774 
-0.25340089725 -4.8811540298 0.023141204575 -0.40044774498 -0.74280470663 -0.19652645365 0.099393902367 -1.2550339252 -0.047351255608 
-0.55982241649 -3.5404748407 0.055471250264 1.1934216881 -0.83559479188 0.085889289753 -0.41570867305 -2.0073411663 -0.16538436077 
0.25345461262 -4.8473872234 -0.17824557682 0.075653311766 -4.8437307157 0.21391703911 -0.90425036718 -3.9865789682 -0.4529824549 
-0.85875223237 -2.8348718639 0.53011961467 -0.053453153983 -0.00084182173454 0.014920152343 -0.079320934705 0.13862075862 0.013652623548 
0.0025422332902 0.0003222169472 -0.040332355387 -0.29545620316 0.041917489152 -0.005953971126 0.0026334732424 -0.0029983921131 0.028295187384 
-0.23677744218 -0.087707617729 0.048960997846 -0.064886712868 0.057306677049 -0.0070960877283 7.7333221551e-05 0.068795834524 -0.060386116592 
-0.33341340739 -0.078567536728 3.3479153738e-06 -0.05519933104 0.016829222906 0.076051642221 -0.07868124187 -0.0021612264714 0.040293431567 
-0.19465114542 -0.037116596364 0.00013464367495 -0.021141381711 -0.043149415775 -0.070037272046 -0.18107494282 -0.0020297750762 0.0038858612457 
-0.1869868961 -0.18948727495 0.28170396543 -0.18486549085 -0.0046597150937 0.035324180548 -0.05203369974 0.038619949573 -0.036866546428 
-0.34567351624 0.0061656143149 -0.048715139169 -0.018880707962 0.22416277865 -0.14614354937 -0.13810024269 -3.2916119281e-05 0.33387739342 
-0.025433758397 -0.00041034963491 0.040302275868 -0.28390766399 0.04894312692 -0.34817316985 -0.44437589625 -0.032001982703 -0.0623082779 
0.073746597478 -0.023622028979 0.036164376989 -0.23637509081 0.0064480021274 0.20383063123 -0.10218710986 -0.00017625492186 -0.091616042753 
-0.3854632955 0.020157125563 0.029910337746 -0.34722247898 -0.048880509929 -0.0015119674019 -0.058872361063 -0.056909754098 -0.011989333225 
-0.18634677166 -0.063659355714 -0.013728442246 -0.16799574803 -0.0012719053782 -0.15841211582 -0.054959118718 -0.028942524455 -0.037366794255 
-0.22162835471 -0.01704157777 -0.0731091544 -0.37691814306 -0.18796491768 -0.46412209321 -0.18220920623 1.9266016683e-12 0.027121838246 
-0.24663920007 -0.12819942894 -0.15531049406 -0.34100650231 0.057276137788 0.057030866231 -0.73872938208 -0.0098489783304 -0.078749850211 
-0.26918537087 -0.048518741242 -0.14158822567 -0.39485302251 0.089693298205 -0.11445821784 -0.16514667523 0.1832435171 -0.6425013905 
-0.098216811188 0.017717105068 0.087440020544 -0.19333931365 0.088951118263 -0.14118662486 -0.49214087047 -0.067268646807 -0.17042887332 
-0.39543336659 0.27273122506 0.073531881781 -0.25011574799 0.1083685268 0.1062515421 -0.64622365868 0.20820574611 0.048094054595 
-0.4797202969 -0.20747474997 -0.053746837897 -0.13387388777 0.02288616828 -0.32195581154 0.20621140081 0.086206920952 -0.22479256058 
-0.63572704281 -0.17058726776 0.071067886958 -0.86280708775 -0.0044450210493 -0.19263011099 -0.011011402407 0.008481561276 -0.55547985344 
-1.0839002426 -0.41473425437 0.070538108072 -0.29419951263 -0.15697111066 0.24904962795 -0.21886653083 0.0059487588178 -0.017534517071 
-0.26674897307 0.14763221008 0.12453073874 0.20690097639 -0.012433252351 -0.15457002513 -0.26376929706 0.079976773952 -0.35795237947 
0.36345414031 -5.0142019784 -0.31718391194 -0.99093856824 -0.74210453946 -0.62541030206 -0.77461916448 -0.96496860671 -1.1229647348 
-0.85866458124 0.22627611484 -0.40952087891 -0.18628721759 -0.33769619342 -0.040477046362 -0.22726484657 -0.62516963888 -0.24146921926 
0.570078403 -2.4682407562 0.96621048057 -0.82775592807 -0.45768379964 -0.27514523478 -0.69426989544 -0.78624683782 -0.43484763063 
-1.0895804083 -0.59435745342 -0.56327099429 0.53590449954 -1.2826904688 0.61670567425 0.6678476527 -1.0028826317 -0.90834968901 
0.21998831866 -3.4865189622 -0.039799685813 0.29686706536 -0.43196201786 -0.28871043962 -0.44276956684 0.25794343289 -0.012038633015 
-1.0792923022 -0.96485257318 -0.48549591612 0.41896154205 -1.9290990035 -0.52053400042 -0.25615127249 -0.33436342344 -0.53976601035 
0.46163291187 -4.0544380775 0.075264030448 -0.38024463415 0.12454603856 -0.37540641184 0.48386977006 -0.58978222324 0.20387677408 
0.36370761686 -0.15399824165 -0.20236495055 -0.59578521081 -3.9440421794 0.047759226589 -0.054981095792 -3.8972723922 1.1823211131 
-0.0018553545795 -0.040690666114 0.080323278786 9.1349143581e-05 1.7405213125e-12 -0.079573795747 0.0012478712111 3.2548912709e-05 -0.0054572146559 
-0.0005701746492 -0.00020478217324 0.019000834984 -0.031923409633 0.057382594567 0.0011528006962 -0.083771807111 -0.00079978166187 0.023567318105 
-0.036772057778 -0.057402196736 0.028867071647 -0.029198444322 0.026871081889 0.0029855236551 -0.10267388751 0.024254418496 0.0013812262895 
0.00022631173042 -0.0010471594497 0.065180998643 -0.17548053992 -0.00011571900071 -0.0087018860826 -0.14763862658 -0.0010269306178 0.024240375794 
-0.00075679117627 -9.2108915541e-05 -0.017256399047 -0.011904251717 -0.0005607027373 0.03827126684 -0.062546339603 0.00025942215133 -0.00044687966922 
-0.13895830471 0.021009212355 -0.015898317442 -0.023964926898 -5.7300973793e-05 -0.016819350047 -0.075598079698 6.9966925654e-06 -0.0070647526088 
-0.069302313815 -0.0099668231793 -0.19603038652 -0.10708103691 0.00092170778122 0.017135065403 -0.17201456835 -5.1206201043e-05 -0.044425590954 
-0.046145022965 0.029241605754 -0.039676621818 -0.20516950457 0.01873939787 -0.0028261172508 0.0029183380165 -0.024079987996 -0.022143868943 
-0.048705806769 -0.00017036038812 0.015596113322 -0.16346601942 0.035223037672 0.029317703889 -0.13578450813 0.0047791396628 -0.036553022672 
-0.12297120919 2.1601327747e-05 0.011964017548 -0.23970103624 0.0035960814343 -0.10135634071 -0.29949043801 0.008262925013 0.0044940111167 
-0.26323066863 0.22977507572 -0.017771039038 -0.054155763035 -0.00058407460161 0.083374756941 -0.26776435905 0.025597446031 -0.00038681419619 
-0.014970127322 -0.07222632793 -0.024615656761 -0.18298950237 0.041478468707 0.050605734395 -0.41472826402 0.035584658512 -0.10493672714 
-0.43158627402 -0.04156254079 -0.09199087465 -0.24468803704 0.0028494395798 0.010137743164 -0.097237638936 -0.0041248211237 0.007951168618 
-0.17417381676 -0.04887841593 -0.091227130296 -0.11475542406 -0.03161166786 -0.038544846803 -0.29492091594 0.11390908983 0.046568075792 
-0.17796215573 -0.057122341444 -0.079952289997 -0.24159940544 0.0093416675132 -0.083255130865 -0.16815112392 0.0015361902456 0.041614174378 
-0.405526159 0.23134446133 -0.24964573797 -0.017010886327 -0.0078152780513 -0.14847360716 -0.24340738652 0.038763114663 0.040976033234 
-0.069365301004 1.6046403264e-05 -0.11896111456 -0.22634282657 0.033712561504 -0.068139667881 -0.060415161346 0.00097903582713 0.049994199425 
-0.44769733112 -0.36286168079 0.31254079486 0.49832878331 0.40730693835 -0.43002377585 -0.27691989568 0.0098502130491 -0.12683390973 
-0.3019806664 -0.0063990655734 -0.092000291456 -0.31092983418 0.144997438 -0.0060568866639 -0.4490083037 0.10623627698 -0.036633338576 
-0.31298886433 0.20190492837 0.16166363965 -0.20189961842 0.022840735659 0.0029199604335 0.023431636754 0.026143727501 -0.012947699265 
0.13108373023 -0.50832132627 0.31815145556 -0.22640307123 -0.16458968209 -0.25379670053 -0.70315909987 -0.36269023014 -0.24562522316 
-1.0249514808 -0.010954047523 -0.71225241559 -0.29407640707 0.25753651795 -0.3491317772 -0.44012463463 0.0078119917313 0.15806076184 
-0.85925359927 -0.010370518987 0.203227901 -0.25668395049 -0.11814919778 -0.26655099684 -0.52492483384 -0.2773633762 0.18162502301 
-0.36767272623 -0.47422505222 -0.14079000872 -0.31752648314 -0.027683592246 0.024855596601 -0.3743973321 -0.25622826718 -0.59395116888 
-0.94350700064 -0.40420096657 -0.93871759986 0.51711545384 -0.20149066944 -1.2009468489 -0.19550942867 -0.54339301548 0.096351069648 
0.1883691785 -0.10485001019 -0.38024329545 0.50512121082 -0.6726275417 -0.58935213868 -0.52792426663 -0.080718967043 -0.016437690045 
-0.61600894331 -0.92769731269 -0.2511882124 -0.00041435450242 -0.56251103086 -0.35127448879 -0.52095551314 0.022417346375 -0.22377655384 
-0.48230706003 -0.0286538217 -0.061328907061 -0.19058674058 -0.94607734369 1.4971711292 0.14978076082 -1.557924751 1.3875623255 
-0.32679723161 -0.067419148485 -0.26282802681 -0.6166707914 -0.8635065088 -0.1193805062 0.0058997234775 -0.32247010959 -0.091717018741 
-0.11693659493 -4.3853290983 0.37486807481 -0.21374995164 -0.22385756465 0.35320744889 -0.082291293613 -0.79478861925 -0.52555211722 
-0.00032506344584 -0.0001808704538 -0.041799245299 2.0947493232e-07 -0.010012063108 -0.050286327533 -0.071514307162 0.0025081970553 -0.0029942172322 
-0.00020938768149 0.015811018177 0.023368783255 -0.12618449871 0.0045520114188 0.0064902953629 -0.12980197089 7.4195115275e-05 -0.018828419464 
-0.084067666594 5.9688931502e-08 0.06881890592 -0.033105105643 -0.0061056302246 -0.0019758638752 -0.081846096282 8.2445272963e-05 0.010707658587 
-0.11969432963 -0.0092455516375 -0.04290832701 -0.001801277429 -0.0060040212557 0.025389463081 -0.1298905556 -0.0024161309852 0.014211638902 
-0.012048293995 0.0017746624952 -0.082662248759 0.010008617606 -0.0090795293147 0.011402884488 -0.12798349839 0.00027930652518 -0.038997049542 
-0.00021377439859 4.8167766312e-05 -0.00010398189186 -0.24622079207 0.042363273157 0.0011398413607 -0.11519279236 0.00049018579856 0.056388346217 
-0.027585987839 -0.046293181993 -0.21392567166 -0.16931035307 0.0012345289966 0.062111138925 -0.0066003668396 -0.00091717219922 0.054612685197 
-0.040835592434 1.3507350951e-05 -0.075323603595 -0.035803055193 0.00079473357125 -0.07645554471 -0.099908625449 -0.00053392262303 0.018605565187 
-0.060000976379 0.13358474301 0.034781984749 -0.045375018425 1.3622488938e-05 -0.076482545669 -0.17996054322 -0.075408549852 0.049247001034 
-0.13512930811 0.056830353123 0.043070643986 0.20589555044 -0.18075935185 -0.21670251875 -0.2001468117 0.030218624168 -0.0039689319638 
-0.27733860484 0.045923441817 -0.048921003041 -0.069917101789 -3.7503563345e-12 0.0080788190602 -0.12850527186 -0.060681259571 -0.089337372481 
-0.13090160214 0.050312921196 0.051943304239 -0.20582690562 -0.090281590755 -0.0067172207401 -0.05124602139 0.00019790137734 0.02092316997 
-0.1595959443 -0.00060556578604 0.010337862052 -0.22001628683 0.084525675073 -0.0093222062774 -0.25513040601 -0.038719701552 -0.0014646547098 
-0.11920926387 0.022348817643 -0.056533421417 -0.20495616245 3.2008674364e-06 0.088329822901 -0.18308291395 0.010181881959 -0.22876142843 
-0.032137729239 0.0080472314655 -0.063148813256 -0.056765444858 0.052634781503 -0.22626267173 -0.16742552364 -0.00086931020472 -0.084583123274 
-0.011848808339 -0.012444429304 0.31517331491 -0.26778819718 0.20360934618 0.054630822061 -0.24624951042 0.14605861455 -0.004296323071 
-0.12632566525 0.00084379944482 0.0064413672214 0.21344244167 0.0011164122416 0.080069764108 -0.28954054866 -0.013547638921 -0.042175938306 