# vtk DataFile Version 4.1
vtk output
ASCII
DATASET UNSTRUCTURED_GRID
POINTS 1274 float
0.273724 -1.29442 -0.0531898 0.273993 -1.30223 0.0958411 0.279897 -1.29498 0.316553 
0.157859 -1.31629 -0.210675 0.298441 -1.29135 0.178024 0.411693 -1.23463 -0.0671447 
0.381714 -1.29106 0.322057 0.470487 -1.23551 0.493235 0.512238 -1.24373 -0.0077644 
0.637084 -1.2532 -0.00549264 0.539026 -1.34676 0.18763 0.641617 -1.22251 0.434156 
0.852462 -1.27243 -0.151246 0.843594 -1.25446 -0.0829224 0.6578 -1.29609 0.15809 
0.755481 -1.27579 0.26596 0.696167 -1.27011 0.218872 0.794209 -1.20776 -0.0447515 
0.637119 -1.20713 -0.0557218 0.672423 -1.34643 0.0077502 0.715094 -1.19053 -0.0821559 
0.690754 -1.30811 0.278296 0.405299 -1.22938 0.298667 0.615406 -1.27203 0.224701 
0.912945 -1.23656 -0.076778 0.327075 -1.23783 0.156432 0.657591 -1.20768 0.363492 
0.814376 -1.19486 -0.113063 0.921365 -1.31389 -0.000420508 0.823437 -1.22922 0.0380118 
0.971912 -1.2085 -0.0152835 0.656913 -1.22814 0.0469174 0.557842 -1.21875 0.378415 
1.08231 -1.22264 -0.287795 1.03345 -1.24153 -0.141581 0.503935 -1.22116 0.280644 
0.790042 -1.27865 -0.0124712 0.635003 -1.27366 0.28559 0.405281 -1.25059 0.137874 
0.956802 -1.20134 0.0584542 0.851495 -1.22641 -0.20852 0.798227 -1.23314 0.160121 
0.838351 -1.21209 0.108886 0.748259 -1.22073 0.216353 0.903581 -1.24342 -0.00567653 
0.983946 -1.23773 -0.236774 0.89184 -1.25224 0.291457 0.887147 -1.21788 0.230035 
0.452455 -1.29921 -0.306619 0.167872 -1.33251 0.280789 0.145221 -1.35878 -0.0654572 
0.0370369 -1.33441 0.173551 0.286552 -1.34239 0.471708 0.255922 -1.33818 0.384954 
0.239814 -1.31308 0.164468 0.379759 -1.35335 0.285169 0.151149 -1.34827 -0.274843 
0.359421 -1.41001 0.0556238 0.611984 -1.28939 -0.21324 0.217831 -1.35344 -0.222263 
0.399625 -1.34728 -0.151438 0.371742 -1.3551 0.40455 0.399556 -1.293 0.394622 
0.278224 -1.3483 0.208882 0.213537 -1.33805 0.00533956 0.485255 -1.26602 -0.187199 
0.413498 -1.36083 -0.0237574 0.583516 -1.34513 0.299812 0.433359 -1.2827 -0.142602 
0.304292 -1.2841 0.242985 0.552727 -1.3603 -0.0196407 0.376896 -1.27369 0.194485 
0.331434 -1.29836 0.0617809 0.330703 -1.26202 0.445525 0.508646 -1.22739 -0.0831977 
0.623831 -1.4128 0.100137 0.5386 -1.2502 -0.239528 0.21281 -1.28151 -0.175989 
0.56867 -1.35607 0.0412918 0.541241 -1.30137 -0.0341238 0.328521 -1.26195 0.297431 
0.451645 -1.28832 0.450383 0.579868 -1.33502 0.469901 0.446606 -1.28087 0.264183 
0.511141 -1.29929 0.291141 0.452044 -1.36107 0.112172 0.615381 -1.30348 -0.0474839 
0.643673 -1.22717 -0.214066 0.972591 -1.28503 -0.284706 0.570376 -1.28613 0.172305 
0.475494 -1.28644 -0.250513 0.764668 -1.28926 0.343896 0.645652 -1.32728 0.220614 
0.577143 -1.23832 -0.0535597 0.999482 -1.26678 -0.0445727 0.741805 -1.25427 -0.06067 
0.684782 -1.2905 0.0494883 0.876338 -1.34913 0.161835 0.603153 -1.2548 0.0799953 
0.780377 -1.23225 0.388031 0.791267 -1.24175 0.464697 0.545547 -1.26307 0.232969 
0.826135 -1.35947 0.20784 0.622014 -1.22484 -0.144638 0.687895 -1.23235 -0.0329517 
0.553116 -1.24045 0.12389 0.732437 -1.23678 0.0213818 0.808468 -1.30047 0.178074 
0.828972 -1.25007 0.340581 0.681227 -1.26708 0.329892 0.809321 -1.22654 0.532537 
0.912544 -1.24714 -0.369141 0.769709 -1.3096 0.0489463 0.43787 -1.25594 0.192595 
0.723825 -1.22678 0.535002 1.16349 -1.22107 0.0119615 0.628855 -1.26627 0.530178 
0.73424 -1.22569 0.317758 0.705195 -1.24499 0.415273 0.579027 -1.24316 0.015623 
0.958575 -1.29239 0.219545 1.10564 -1.23872 -0.166949 0.839095 -1.30527 0.0442176 
0.977063 -1.22587 -0.0923677 0.908447 -1.28982 0.0616887 0.616281 -1.23659 0.147606 
1.32273 -1.1961 0.526799 0.738743 -1.25616 0.161337 0.940531 -1.22516 0.19349 
0.952655 -1.20815 0.423003 1.21183 -1.26332 -0.182607 0.905194 -1.23216 0.0978115 
1.04525 -1.22573 -0.00797069 0.863795 -1.23337 0.171976 1.10081 -1.25812 -0.0319538 
0.963425 -1.26274 0.0317501 0.0867134 -1.41341 -0.246565 0.285904 -1.36074 -0.213011 
0.430055 -1.40919 -0.397639 0.0351685 -1.3596 0.315275 0.21325 -1.3211 0.482532 
0.0967032 -1.40799 0.156728 0.21662 -1.34415 -0.402017 0.500709 -1.31859 -0.34821 
0.0870967 -1.35984 -0.38147 0.493787 -1.34764 0.45983 0.251051 -1.27895 0.529061 
0.147066 -1.35434 0.379382 0.241115 -1.41179 0.297693 0.096704 -1.35817 -0.0124956 
0.276992 -1.31996 -0.156637 0.0801072 -1.35883 -0.288934 0.472504 -1.35386 0.30989 
0.348675 -1.40768 -0.02929 0.129639 -1.34351 0.230588 0.213326 -1.33454 0.0981922 
0.219696 -1.29564 0.291396 0.320976 -1.29137 -0.295077 0.270967 -1.34801 0.0403885 
0.42259 -1.31835 0.166209 0.0827034 -1.2926 0.215283 0.515556 -1.30034 0.419375 
0.893346 -1.30015 0.533049 0.546804 -1.35547 0.420433 0.24093 -1.29488 0.228641 
0.318254 -1.35521 0.156948 0.318863 -1.35429 0.0925873 0.367396 -1.28836 -0.232374 
0.520217 -1.33275 -0.241305 0.492784 -1.2928 0.203948 0.550794 -1.22526 0.525013 
0.644689 -1.28741 0.408268 0.777084 -1.34092 0.461734 0.423939 -1.34431 0.229029 
0.676993 -1.41468 0.136486 0.594939 -1.22169 -0.399396 0.601299 -1.35847 0.188484 
0.853931 -1.22681 -0.316489 0.391382 -1.29512 -0.298406 0.828518 -1.29958 0.283811 
0.759251 -1.2896 0.41985 0.332895 -1.28445 -0.17214 0.571431 -1.27624 0.288827 
0.670162 -1.27221 -0.166612 0.490092 -1.24951 0.145378 0.87936 -1.29194 0.214152 
0.970473 -1.38761 0.088565 0.535689 -1.28033 0.0564312 0.994702 -1.25484 0.444061 
0.648793 -1.33022 0.341034 0.941759 -1.29602 -0.0633175 0.675534 -1.20724 -0.270136 
0.725874 -1.2289 -0.144999 0.791365 -1.30412 -0.0806235 0.820794 -1.34978 -0.0452347 
0.739848 -1.318 0.178513 0.703136 -1.35483 0.138647 0.859774 -1.29913 -0.0262808 
1.00876 -1.24924 0.0867994 1.06205 -1.27475 0.0387169 0.912433 -1.25093 -0.140471 
0.786893 -1.28869 0.115074 1.10918 -1.28397 0.394955 1.00429 -1.24673 0.188773 
0.818515 -1.24322 0.229006 0.698976 -1.25844 0.110982 0.931807 -1.36123 0.216818 
0.85725 -1.28511 0.119007 1.19593 -1.36085 0.117093 0.947343 -1.35394 0.143522 
1.12382 -1.2588 -0.097789 1.02653 -1.26066 0.275244 0.763446 -1.22422 0.0951341 
0.993238 -1.35353 0.196702 0.297597 -1.4153 -0.358813 0.199559 -1.3722 -0.327207 
0.0322037 -1.4135 -0.034491 0.441445 -1.28068 0.531353 0.0339859 -1.41171 0.191264 
0.0879722 -1.32415 -0.106981 0.340245 -1.30683 -0.394458 0.0369047 -1.36219 0.021149 
0.0326482 -1.34531 0.488484 0.346584 -1.40639 0.198479 0.151893 -1.41314 0.444433 
0.324033 -1.34688 0.532516 0.0881796 -1.39525 0.227215 0.326693 -1.35879 -0.265323 
0.218201 -1.35061 -0.129227 0.248961 -1.41429 -0.202517 0.125103 -1.33767 0.152909 
0.312004 -1.29145 0.502096 0.0915564 -1.33743 -0.219711 1.00565 -1.41418 0.472937 
0.234253 -1.40735 0.202627 0.21819 -1.34144 -0.0604444 0.403494 -1.35848 -0.282325 
0.151032 -1.32346 -0.00109857 0.582382 -1.41374 0.215203 0.469144 -1.4131 0.144575 
0.452707 -1.28902 0.340978 0.274132 -1.35687 0.322708 0.194561 -1.36249 0.157674 
0.311739 -1.34571 0.270342 0.802259 -1.4127 -0.226634 0.190343 -1.38797 0.264677 
0.356526 -1.34232 -0.0620656 0.161655 -1.30569 -0.120865 0.394459 -1.41526 -0.141582 
0.293165 -1.35419 -0.0873867 0.465671 -1.33975 0.396145 0.479378 -1.25483 0.394872 
0.297979 -1.35987 -0.0221829 0.35877 -1.34947 0.0162046 0.800681 -1.29733 -0.212101 
0.379077 -1.36167 0.155158 0.33627 -1.3453 -0.179521 0.352807 -1.29992 0.132049 
0.37772 -1.29362 0.256127 0.347581 -1.33267 0.211556 0.526279 -1.23561 0.436556 
0.447879 -1.29508 0.108964 0.734734 -1.25888 -0.210326 1.05809 -1.36695 -0.147733 
0.310561 -1.30423 0.00391188 0.444179 -1.30494 -0.0197491 0.836355 -1.41477 -0.140757 
0.613545 -1.3622 -0.0113285 0.65013 -1.36311 0.275086 0.501803 -1.35064 0.244407 
0.518578 -1.26035 0.345254 1.14793 -1.36802 0.380345 0.628404 -1.36842 -0.0737177 
1.12041 -1.2836 -0.219133 0.725167 -1.29647 -0.115954 0.85386 -1.32458 -0.107839 
0.68705 -1.36357 -0.0515193 0.746684 -1.34149 -0.00647014 0.89796 -1.3546 -0.0556311 
1.04981 -1.2359 0.467564 0.63599 -1.31489 0.0924537 0.841328 -1.41501 0.254279 
0.652643 -1.25753 -0.0942356 0.895604 -1.35376 0.0896265 1.09831 -1.31879 -0.000754034 
1.01076 -1.31096 0.00851181 0.813269 -1.37058 0.0465885 0.753668 -1.33949 0.101765 
0.69593 -1.29797 -0.0347838 1.05064 -1.34985 0.155089 0.854859 -1.41217 0.0910849 
1.18034 -1.23106 0.410275 0.994468 -1.28984 -0.106369 1.09778 -1.40835 0.173116 
0.9634 -1.37552 -0.0368017 0.971619 -1.31639 0.0849827 0.867027 -1.20745 0.462861 
0.0341699 -1.37745 -0.227521 0.0314948 -1.41421 -0.17317 0.035492 -1.41021 0.467909 
0.0724818 -1.41424 0.307501 0.0840154 -1.37155 0.528368 0.0999131 -1.41553 0.479473 
0.0769307 -1.41064 -0.339106 0.166934 -1.39485 -0.39495 0.384417 -1.36054 -0.403686 
0.0336249 -1.41208 -0.285807 0.0514813 -1.41294 0.0665878 0.264984 -1.4091 0.470977 
0.035609 -1.41055 0.363726 0.240045 -1.4087 0.370341 0.142922 -1.41182 0.528599 
0.301768 -1.35418 -0.332179 0.142866 -1.41429 -0.331475 0.145818 -1.41471 -0.269141 
0.640529 -1.41013 -0.320285 0.424292 -1.41293 -0.237083 0.115992 -1.41367 0.0606612 
0.0974701 -1.34396 0.422132 0.392179 -1.33181 0.529311 0.109641 -1.35191 0.315415 
0.50101 -1.4062 0.400837 0.17509 -1.37134 0.0535853 0.310233 -1.40789 -0.168348 
0.292565 -1.41419 0.0897214 0.209898 -1.40914 -0.0931003 0.355438 -1.34881 0.469478 
0.316801 -1.32235 0.415526 0.291617 -1.40986 0.249615 0.713804 -1.35036 0.518543 
0.207383 -1.35185 0.33187 0.411335 -1.35003 0.349646 0.453575 -1.34854 -0.224249 
0.383479 -1.35576 -0.218995 0.0655594 -1.35877 0.109107 0.455393 -1.40706 -0.173075 
0.243393 -1.35268 0.267282 0.263777 -1.35818 0.128538 0.420772 -1.35371 0.450482 
0.336693 -1.32085 -0.122253 0.457416 -1.41043 0.0497866 0.629347 -1.28023 -0.372028 
0.523835 -1.29207 -0.2905 0.569951 -1.41475 0.064896 0.519303 -1.28587 0.489327 
0.648228 -1.41098 0.225332 0.550527 -1.35146 -0.296404 0.456653 -1.41397 0.209196 
0.680676 -1.36145 0.394715 1.07285 -1.29118 -0.270005 0.463168 -1.28398 -0.0797504 
0.428164 -1.34147 -0.0861974 0.501961 -1.32643 0.0149838 0.43835 -1.34183 0.0378428 
0.529581 -1.33085 0.355538 0.571359 -1.28954 0.535691 0.942804 -1.25457 0.531367 
[...]
POINT_DATA 1274
FIELD FieldData 10
VELOCITY 3 1274 double
-3.6128822009e-05 -3.7915956663e-05 -0.00012104813921 9.6248141784e-05 2.9536813649e-05 6.5167482645e-05 -0.00022696155806 -0.0001186195689 0.00020141653801 
-0.0001029363502 8.661648731e-05 -5.3528859974e-05 -4.8158581679e-05 -5.1465122194e-05 -2.8359518104e-05 -0.00015215290099 5.7492790355e-05 4.0284969745e-05 
-0.00036414174069 3.4623025624e-06 0.00011718412252 -0.00084875473947 0.00012544642289 -0.00043041038044 -0.0007000080908 0.00016553829798 -0.0010567761992 
-0.00082171576617 -0.0017471008776 0.00061164174237 -0.00019690365355 5.3672950148e-05 -0.00013297227749 -0.0012385707284 -0.00038100180849 -0.0016749974558 
-0.00027362906579 0.00010061525652 -0.00038114514174 0.00029620612998 7.9786263405e-05 -0.00031659082167 0.00078424711464 -0.00099622711693 -5.0962885728e-05 
-0.0002364875535 0.00014690731526 0.00086091292856 0.00039876112445 -0.00036603136743 1.0045980756e-05 -0.0014844102289 -0.00091508317161 -0.0015496582317 
3.3302659347e-05 -0.0046864112595 -0.0021724459815 0.00013529874546 5.7559585415e-06 0.00011044468225 5.9811310779e-05 -0.0015565754364 0.0018132581802 
-0.0002628679782 0.00011779762419 0.0003367278844 -0.039188090638 -0.001879125635 -0.044045288247 -0.00022662876488 -0.00012456899913 0.00015529469645 
0.0001770311253 0.00045449352845 0.00075624684208 -0.019523802798 0.0009778301989 -0.023273490367 -0.00076747966486 0.0008183841429 -0.0013188246353 
0.00018645894554 -0.00036037202355 -0.00096666447432 -0.00030391393417 -7.2258948195e-05 6.249957898e-05 -0.0005535927253 -7.9492836865e-05 -0.00031050995421 
-0.00031417886049 -1.656309752e-05 0.00038180556765 0.00023033414117 5.9413932579e-05 -0.00059144534604 -0.00053180849636 -0.0002880427616 0.00043591808434 
-0.0010809541606 -0.00013506001992 -0.002024809402 0.00041764119253 0.00013308265412 -0.00011682191299 -1.2300002395e-05 -0.00031157432427 1.2540620533e-05 
-0.0003024763279 -0.00029476043004 -0.00016884780599 -0.00020043092514 0.00011113003154 0.0006024195523 0.00012596491821 -0.00014404428433 0.000230307666 
-0.0057984697652 -0.0014685944618 0.0011230645941 -0.0017231571095 -0.0030992286507 0.0016056119472 0.00010721574331 -3.2054197694e-05 0.00011245972148 
-0.00038360716811 -0.00015830680108 -0.00032002464369 -0.00042547908068 -0.0016687213338 -0.0011601859779 -0.00037542281227 5.9701622342e-05 0.00036475939613 
0.032752607948 -0.0090356421226 0.0012175143006 -0.000233115145 -0.00032045955529 0.00052366356156 -0.0011281461108 -5.8000072993e-05 0.00072216033214 
-0.00088667289031 -0.00046191424383 -0.00024067503988 -0.00015915345813 6.3928696386e-05 -0.00012031667056 2.1411975759e-05 -8.9723596019e-05 1.8837612292e-05 
2.0394475529e-05 -0.00067357399626 0.00021548383894 -0.00026617164207 -9.9587876473e-05 -0.00019214365756 -0.00013623757144 3.0143005098e-06 2.2159072682e-05 
-2.0539197334e-05 -0.00013379755294 -2.2016498329e-05 -0.00020236979783 -7.7839121422e-05 -3.9966235501e-05 0.00039185587087 -2.1616889725e-05 0.00030583554696 
-5.7475634543e-05 3.4861345656e-06 3.8474106224e-05 -0.00047000503157 -4.4961170168e-05 -0.00081616831381 -0.00010661395029 3.6318736644e-05 0.00019122315482 
-1.2844574788e-05 -5.3043967976e-06 9.8214987232e-05 -0.00014641456603 -9.4270217184e-05 0.00010836219339 -0.00060617635776 -2.1667593584e-05 -8.8240562488e-05 
-0.00011869800148 -2.202156954e-05 3.2043642632e-05 -0.00014570686405 -0.00032447144012 0.00022296577331 -0.00022510763343 -0.00021224560144 -0.00021894004983 
-0.00015198101201 -1.5836659887e-05 9.9317457824e-05 -8.0636796645e-05 9.9251044685e-05 8.0996292853e-05 -0.00018528697544 6.9176042022e-05 -9.0746941318e-06 
-8.2432061578e-05 -5.9692184767e-05 -2.7770321154e-06 -0.00017338306703 7.7133167567e-05 0.00029407593832 -0.00021542702901 -2.1347311841e-06 0.00016453834052 
-6.0989302437e-05 -0.00010083268333 -2.9859012211e-05 -0.0003021968624 8.4740220827e-05 -0.00011314906579 -0.00051885960641 0.00032569443317 -0.00089064895644 
-0.0017366442942 1.3851526702e-06 -0.00098253576075 0.032954687878 -0.0027240327653 -0.0071210809203 -0.029145672588 -0.017053069828 0.063112135589 
-0.0040602053872 0.00037561297941 0.0012579779203 0.00036577200908 0.00012398680992 0.00018169331655 -0.00034393246339 -3.1922752533e-06 7.655858473e-05 
-0.00044359593773 -0.00018627014093 -0.00018493249883 -0.00042273067492 8.2237383251e-05 0.00022942370173 -0.0001766858998 -0.00011832950092 1.9024022221e-05 
-0.00011338778077 -0.00031217160083 -0.0004244208861 -0.00011045271064 -4.553983569e-05 -0.00016356290366 0.001948860515 -0.00071310646992 -0.0020380968737 
0.0010527346056 -0.00075346547779 0.00058829385551 -0.00038003148951 -0.00012368659365 0.00035001400651 1.02308033e-05 -0.00018859340064 -6.5378432993e-05 
-0.0015088206276 0.00041979163242 -0.0002619878306 -0.00040575710422 -0.00014028431191 0.00027353317336 -0.00012966134261 -6.3362488409e-05 0.00016506447761 
-0.0011036855761 -0.0023609641323 -0.00053446963728 -0.00020248349552 0.00017500015483 8.8652351015e-05 -7.2291945344e-06 -0.0026071971845 -0.0015245049613 
0.00021857071319 7.4785365582e-05 8.7528957217e-05 0.00016317337192 -3.1992509382e-05 0.00015146720266 2.729648174e-05 0.00044115985594 -0.00066534023014 
-0.00038985852581 -2.7894841812e-05 5.2238324255e-05 -0.00042077565951 0.00039260083057 0.00018252307204 -5.966293392e-06 -0.00014620280805 -0.00016478443704 
-7.9690748236e-05 -6.710478475e-05 0.00015404034923 0.00076308938692 -0.00021325982974 -0.0023710803086 -0.00035668256183 -0.0034329377434 7.0623452062e-05 
0.00027154517408 -0.00018167659915 -0.00017357362883 7.6306622535e-05 0.00011909798407 1.1941916092e-05 0.00021394328323 -0.00010639889191 -5.8451835635e-05 
-0.00033590753012 -0.00041503550263 0.00015690098604 0.00011218447257 8.2661717967e-05 0.00046589634662 0.00064693421341 4.1272536513e-06 -1.8241322488e-05 
-0.00022330158364 -0.00054268510047 -0.0027065227998 -0.00015471158371 -0.00026561782643 5.762147094e-05 -0.00022997193307 4.291615174e-05 0.00046635807114 
-0.001969657639 -0.0011284967169 -6.7058277116e-06 -0.00020539029652 2.8585100562e-05 -0.00032764023716 0.0076148393825 -0.0064079326972 -0.018539272099 
3.4943144287e-05 0.00031110645364 0.00082243670748 -0.00043628957626 -0.00067490205515 0.0014082023925 -0.00087597080676 0.00016598428791 -0.00039160774987 
0.00016006464781 -0.00030085546741 -1.3542167851e-05 7.9690598912e-05 0.00021453067852 -0.00035949813916 -0.00028387985606 4.1683624832e-07 -0.00017118769982 
-2.3489625006e-05 -0.00012714171174 -0.00031522648909 -0.0002670578866 -4.0837573763e-05 5.095141731e-05 0.00070367622137 -0.0010331752315 -0.00038616059145 
-0.024073154813 -0.022153248419 4.1471746385e-06 0.00054933670848 -0.0013244400746 -0.0015527552508 -0.0010732536838 -0.00041780195332 0.0007976099547 
-0.00068631382917 0.00011334498232 -0.00014531599398 0.00026642009165 -0.00010943544121 -0.00023378717518 -0.00074397193889 0.00033262354031 -0.00066517148467 
-0.00027127869794 -5.5030573967e-06 -0.00018525560522 0.00014910845284 -0.00079910286976 0.00040986276213 -0.00032966367176 3.6709109608e-05 -0.00037909390081 
-0.00016770924678 -0.00033387899196 2.2988728579e-05 -5.4852859323e-05 -3.50021187e-05 -8.8172810223e-05 -8.8032583011e-05 -4.0830019235e-06 5.1238481839e-05 
3.4935362122e-05 -3.2493679313e-06 3.4807144159e-05 2.8610056433e-05 6.2221380472e-05 0.00032254518838 -5.8006107632e-05 -0.0001306766951 2.8388557248e-05 
-0.00011222892364 9.7188876082e-06 -0.00011410642677 1.3189146859e-05 3.1132784095e-05 1.0001894e-05 -0.00048088103111 0.00019003454316 -6.7704470513e-05 
4.5684677389e-06 1.6112495422e-05 1.0309858478e-05 -0.00012283025273 4.3334250181e-05 -7.3773166455e-05 -3.0442840085e-05 -5.8999511306e-05 -1.4116239711e-05 
2.4746184097e-05 -1.9172006781e-05 9.1834192213e-05 -0.00010731036877 -4.8277725632e-05 0.00017551167418 -0.00011376392529 -2.9997272492e-05 -0.00011909369592 
2.5935804443e-05 -0.00012590727254 0.00017229728163 -9.257257432e-05 8.9849561111e-05 -6.2267914804e-05 -0.00034456345504 1.0402240886e-05 -7.3861927988e-05 
-0.00012015323248 0.00018355733396 0.00016938365968 -5.3219678091e-05 9.7888910309e-05 -0.00028166113384 -8.1790747282e-05 -7.6538936456e-05 -7.94753884e-05 
-9.4005050794e-05 -2.9497527117e-07 -6.1627312527e-06 -0.00088091578847 0.00016378202374 -0.00037112810798 6.8444308198e-06 1.9821375436e-08 9.5391169222e-05 
-8.81146844e-06 6.6351213195e-05 -0.00019832817092 -0.00029324836368 1.627778678e-05 -5.4751307928e-05 -0.0002773928976 -4.3878504302e-05 -0.00018003572589 
-0.00038938378144 -0.0003995800312 0.00027032285037 -0.00010552569947 0.00010876040922 1.8901207847e-05 -0.00011925024569 -2.0769821966e-05 -3.5817932188e-05 
-0.00010470015614 4.0667325531e-05 6.4652576951e-05 9.8750641255e-05 -0.00010449122138 5.1113976182e-05 -0.00089486788376 -0.00035042227876 -0.00032290557002 
3.5906059033e-05 1.5836223674e-05 -0.00018316942651 -0.00018906867838 -1.4618240775e-05 0.00011967045155 -0.027283546726 -0.0092984635605 0.039611684158 
-0.00034444687173 0.0002476600174 6.4085104496e-05 -0.00053145309252 0.00032189735581 0.00080296532481 -0.00038796423534 6.3342000084e-05 -0.00019005208646 
-0.00013506131001 1.4255743181e-05 3.0969877275e-05 -0.00058776924222 -0.00010924142586 6.1727922435e-06 -0.00017051507883 5.7019865859e-05 0.0001050550646 
0.0014397576597 -0.00024505768407 0.00018106175103 -0.00092831827466 -0.0002830257843 -0.00038572365662 -0.00019808195919 -0.0002947606749 -6.1477753636e-05 
0.00010584791285 -0.0001554461924 0.00042420507729 -0.00012223977444 6.1445624228e-06 9.1992905774e-05 -0.00020496649844 0.00013881677568 1.4081005274e-05 
-0.00029736575991 -0.002328720164 -0.00014234666663 0.00033277550699 -0.00026277762111 -9.7267599572e-05 0.00011808614127 -7.9254274614e-05 5.6775549924e-05 
-0.0002250502025 -2.758540113e-05 -5.7398670282e-05 -0.00016550729755 -3.0657295486e-06 0.00017886015623 3.187643301e-05 -0.00044442595045 -0.0004509013012 
-0.00023538942351 0.0001992238898 5.9175006618e-05 -0.00016829409781 8.8594088516e-05 0.00016390822898 -0.00029498940754 -0.00026785927103 -0.0017167818154 
-0.0021450480111 -0.00030377191455 0.00059131086095 0.00099390330357 -0.0007167202543 -0.0014587889066 0.00019296644047 -0.00019806401619 -0.00025415024072 
0.00054515945918 -0.0013579918277 -0.0015305317457 -0.0007275795138 -0.0008693680787 -0.00088953270088 -7.9134125796e-05 -1.1954106051e-05 -2.9296728471e-05 
-0.00015564549452 9.9414918801e-05 -0.00016620558166 -6.125348436e-06 1.4509661023e-06 -0.00025492477531 -0.00038983242311 -0.00051527694954 0.00095588918779 
-0.00010899829154 -3.7765617734e-05 0.00022333196525 0.0011370506953 -0.0013416249985 -0.0018027270758 -0.00021432049222 -4.417515271e-06 -0.00014816430503 
-0.00021673909505 -0.00016516170433 0.00017443433045 -0.001420146459 0.0012361374115 -0.00014038199955 -0.00028088396464 -0.00017580935901 -0.00037808106964 
-7.8006590428e-06 5.9509773376e-06 -0.00034192603335 -0.00022654056674 -0.00012368831152 -0.00019840582036 0.00016311001903 0.00017706758993 4.1441418626e-05 
-0.000257231485 -0.00013879175832 -0.00038063038735 -7.8110147241e-05 4.5711649806e-05 -4.5867412854e-05 0.00018986154035 4.0788220532e-06 -1.535682174e-05 
-0.00022691747327 -0.0010971078566 -0.00041027263354 -0.00031091229923 -4.8466331027e-05 0.00014326725909 1.5903160546e-05 2.462195359e-05 -9.2113477163e-07 
5.1217735324e-05 -0.00012046514018 -9.07360229e-05 -0.00015286651054 3.0107623885e-05 1.790197366e-06 1.5682786356e-05 -0.00027665397758 0.00013034844485 
0.00010972542164 -0.00018943008265 -0.00014527528274 -5.5871719926e-05 6.8089204184e-05 -0.00079725264437 -2.2806581437e-05 5.0946540573e-05 7.7813042158e-07 
9.0049766946e-06 9.5094989593e-05 -0.0002848573383 -0.00019568613474 -5.5325522394e-05 0.00013077074495 -0.00025829053776 0.00017851741677 -0.00013539276083 
-0.00018016435584 -2.0815449499e-05 2.0882872357e-05 -9.9085616942e-05 0.00023601847401 9.8698302644e-05 -0.00012509950386 -7.2636798217e-05 -0.0002418164223 
-2.5945901159e-05 -0.00014586289497 0.00017578751763 -0.00061799765892 7.3975388446e-12 0.00080473983807 -0.00018895162521 6.4129444409e-05 0.00011050319855 
-8.1518500277e-05 -8.0468946263e-05 -0.00014222819484 -0.00011827617128 0.00014237797792 -3.1031252392e-05 -0.00063838080753 -4.2888466821e-05 7.6186232514e-05 
-0.00011443471867 -5.2925616794e-06 -6.2889086051e-05 8.1141029031e-05 -0.00020827072716 0.00021681999126 -1.2195575102e-06 5.4058454087e-05 7.49283354e-05 
-7.2843591591e-05 -0.00016304337602 4.756692306e-05 -5.6941735576e-05 1.5368384157e-05 0.00016031185702 -0.00015040791054 -9.0817156178e-06 6.9974173458e-05 
-0.00037145708035 -3.3610035707e-05 1.0406790676e-05 -0.00032159489058 -9.3769418895e-05 3.3158738557e-05 -0.00018570813899 1.3864032809e-05 -6.4684742777e-05 
-0.00022736315193 -9.5818892447e-07 8.9479162082e-05 0.0002375097975 -4.4497337037e-05 1.7934092153e-06 -6.6010624029e-05 -0.00012966148695 -5.6998914354e-06 
5.0363298789e-05 -2.8762245809e-05 3.3225923939e-05 0.00011527227391 -0.00011480929002 3.0937219236e-05 -0.00014420900848 1.8807782528e-05 -2.2563638909e-05 
0.00013587989605 -0.00010973635511 4.7867384014e-05 -0.00032656584766 -0.00010684596451 -2.85726718e-05 -0.00034138407926 5.0789397976e-06 -1.6379945067e-05 
-0.00010528553488 -4.36702462e-05 7.6992950836e-05 -0.00021074142933 2.3486088308e-05 6.2317357065e-05 0.0003017266469 -0.00013165611271 -0.00077544851825 
-7.0115180901e-05 -2.0148755954e-05 -2.8759051041e-05 -2.816223347e-06 2.7275398667e-05 -2.9175956149e-05 5.338151744e-05 -6.8974439355e-05 5.5076462516e-05 
-0.00023520374313 3.5747728015e-05 0.00012280678987 -0.0001612034386 7.3925068683e-06 7.9825521121e-05 -0.00069397288769 -9.1907727093e-05 0.00042566603618 
-6.6377932528e-05 1.7161211603e-05 -0.00014713776972 0.00010498236608 -0.00059048532607 0.0010607551385 4.8865263295e-06 -1.8193430871e-05 9.572099512e-05 
-0.00018105543573 5.1445232202e-05 -5.0506110563e-06 -0.00020235101801 -3.7783968748e-06 -0.00010776146334 0.00051069392772 1.2767433341e-05 0.00018575511514 
0.00058363621995 -0.00024162924823 -0.0014802282364 7.4574683991e-05 -0.00019691433139 0.00037106834765 -0.00032328195453 -8.1296886784e-05 -1.6286469803e-05 
-0.00024891416205 -0.0002691778948 7.7306954123e-05 0.00020661147687 6.5545114841e-06 -3.0166765885e-05 0.0010037097499 -0.00093778285498 -0.0020414308682 
0.00019080715277 -2.4562549866e-05 -0.00014532583335 -0.00051429067526 -0.0015564224674 -0.0021273425009 -0.00091454462545 -0.0002688680236 0.00039501609333 
0.00010565868385 0.0001616386209 1.1705159387e-05 -0.00037357691964 -0.0001587056599 0.00011897078579 -0.00035294349058 3.4749919992e-05 -3.9904445169e-05 
0.00027079952711 -0.0011480855654 -0.00046385747796 -0.00039236126325 0.00026463993771 -0.00037591026222 -1.9554452204e-05 -1.3342448184e-05 0.00013503440667 
-0.0013002774273 -0.0039996624907 -0.0035740493433 -0.00030064682258 -4.057448688e-05 -7.1958546903e-05 -0.00032990416517 -7.1820560036e-05 -0.00046164542261 
-0.00016892300419 -0.00018307521213 -0.00016566452506 0.00022511439154 -0.00018690618423 3.2140984642e-05 -0.00020426752141 -2.1091114444e-05 0.00021970183637 
-0.00079052488282 -0.0034286776359 -0.0042187122966 -0.0004648049712 8.4255136014e-05 -0.0003692225616 -5.5708165899e-05 2.5825390319e-05 0.00019836904315 
-0.0056636963363 -0.00624881342 -0.0086517995648 -3.6266028635e-05 -0.00021466331704 0.00022252187617 -0.00036180256144 1.9060120106e-05 -6.3715177824e-05 
-0.00013941316203 2.1051815032e-05 -0.00010568603 -0.00010960111096 1.6982408283e-05 -0.00019431138053 -0.033805998844 -0.0055742054747 -0.028804145529 
4.3528703316e-05 -3.721413091e-05 -0.00026544506053 -0.00013667974403 0.00016788119579 -6.6006803678e-05 -1.4551398776e-05 -3.9868537007e-07 -1.1421364508e-05 
-9.7600824865e-05 1.8130688364e-06 0.00026323189237 -0.000185510875 0.00010442849221 -2.273553489e-05 -1.1996874152e-05 2.9417436933e-05 0.00015281416021 
7.7028424181e-05 2.1699257522e-05 -9.4615731014e-05 -1.3435506328e-05 7.5581626575e-05 5.1606753718e-06 1.0104497869e-05 -1.9731010041e-05 -8.7535791102e-06 
2.0948581575e-05 -7.3109499092e-06 -6.8956123605e-05 -0.00012482050354 1.4928798674e-05 -2.7786399089e-05 -0.00025702515062 -8.2399259003e-05 -5.0625508843e-05 
-2.6884646945e-05 -6.1921675135e-06 0.00020430193133 6.9610809234e-05 1.611452132e-05 4.9672086359e-05 -0.00023609012285 1.4253193315e-05 -0.0026437629942 
-0.0010274157099 0.00035057341778 -0.0006168248052 1.0533460072e-05 -8.3730126018e-05 -2.3701438313e-06 -0.00010378868761 9.0889741283e-05 2.8393405143e-05 
4.987061222e-05 -5.0114614834e-05 0.00015668315189 9.9064378017e-06 -1.7092723801e-06 1.1555789449e-05 -0.00010671177837 -5.1506823591e-11 -0.00012825887457 
-1.1391739224e-05 3.312530354e-05 4.6681041369e-05 -0.00014410299097 1.6736783305e-05 2.25695994e-05 3.1554829988e-05 2.5311593087e-05 0.00010187864418 
4.7230165398e-05 1.1330399967e-05 -0.00024875100272 -5.6071404076e-05 -0.00010327189712 -0.00011637751646 -9.9058064828e-05 -2.1219758673e-05 5.3920717145e-06 
-1.5669830461e-05 9.3656039644e-06 4.3821245139e-05 -5.9600211184e-05 -0.00010968657137 8.9732251915e-05 -0.00031907099001 -7.9490402057e-05 0.00013040264964 
-0.00016182755562 8.328884956e-05 -8.3001045415e-05 -0.00017348536198 1.5023343765e-05 -2.8243575619e-05 0.00063064181421 0.00032095246255 7.7795521443e-05 
-0.00025657042508 7.4620780525e-05 3.7265303462e-05 -0.00038534304292 -7.0148027671e-05 -3.4719650967e-05 0.00014146628404 -4.1588473715e-05 3.4116923422e-05 
-7.6454363599e-05 -7.4393352567e-05 -5.5404516471e-05 -8.7890205518e-05 -1.5642692179e-06 -8.9989950618e-06 -2.1459911313e-05 1.561372866e-05 0.00012100126535 
-0.00017446289927 -5.9088985222e-05 -3.8840535343e-05 -3.3826800753e-05 -3.2355237159e-05 -0.00010228187622 -0.00027719718026 -9.5063752151e-05 0.00012631851939 
3.8430787772e-05 -0.00010629421337 2.9660331902e-05 -0.00012046147696 -0.00018511420845 0.00022891437321 -0.00069834122621 -0.00068100093309 -0.001082370395 
-0.0011478802138 0.00050995731359 0.00011666263014 5.8500856757e-05 -1.6728593808e-05 6.9269759427e-05 -0.00088493294698 3.4789578559e-05 0.00057498894941 
-0.00030243407699 0.00012076192597 5.796370078e-05 -0.00137476487 0.00048092558404 -0.0011279000293 -0.00017643578028 -0.00016019093638 1.4157681663e-06 
-6.1639827456e-06 -8.7668154848e-06 -6.2531297146e-05 -0.000100065987 5.6417792007e-05 4.0142730527e-05 -3.6599602447e-05 5.8580123637e-05 3.7231872202e-05 
-8.8867996853e-05 4.0563696668e-05 0.00011049044486 -6.0685216591e-05 0.00012206836245 -0.00014598837517 7.3144650674e-05 2.9413998827e-05 1.8405379376e-05 
-0.00031674165351 -0.00030180553451 -6.8034754524e-07 0.0085348083258 -0.0044238028533 5.0357255243e-05 -0.00011363895378 -0.00094518845424 -0.00015181524001 
-0.00070902833423 4.2079334058e-05 0.00021893446291 1.9446114393e-05 6.9123776164e-05 -0.00013269727619 0.00023366368604 -0.00010952548269 -8.7236233252e-05 
-0.00039005066534 -0.0038739787168 -0.004216222334 -0.0017067662828 -0.0029213507553 -0.00068934196895 -0.00030557245392 -0.00013121610599 7.3220740477e-05 
3.6471601351e-06 -3.6276510568e-05 -0.00034952989718 -0.00011126941307 1.8831007163e-12 4.9845776728e-05 -0.0001820326427 4.5583333838e-05 -0.00027369060633 
-0.00022013929089 -0.00011577736116 0.00040209398812 -0.00030031664084 -7.5718110454e-05 0.00023213516886 -4.5728015357e-05 -2.7324565247e-05 -0.00024720915831 
0.00016846701418 0.00023751310569 -0.00065182944753 -0.00036976967897 -0.0002510385733 -1.5530197173e-05 -0.00022563807922 -3.5017490615e-05 -0.00040871515669 
5.7888105083e-05 9.9947797076e-06 -0.00016810794693 -0.00016651012454 8.6583985555e-05 -0.00029957482747 -0.00026430433732 -4.7057327943e-05 -0.00017221290363 
0.00028042668097 -0.00029818204967 0.0003673026383 0.023492910875 -4.5089341089e-12 -0.0034095707883 -0.00022627544699 -6.0769623289e-06 0.00045983178563 