# vtk DataFile Version 4.1
vtk output
ASCII
DATASET UNSTRUCTURED_GRID
POINTS 1274 float
0.273688 -1.29446 -0.0533451 0.273611 -1.30218 0.0959089 0.279318 -1.29496 0.317599 
0.157813 -1.31607 -0.211029 0.298402 -1.29137 0.178177 0.411473 -1.23449 -0.0669427 
0.381284 -1.29111 0.322114 0.469893 -1.23548 0.492927 0.512114 -1.24363 -0.00817346 
0.637046 -1.2534 -0.0057119 0.538801 -1.3467 0.187561 0.641107 -1.2228 0.434202 
0.852389 -1.27265 -0.151192 0.843401 -1.25444 -0.0829439 0.657656 -1.29639 0.158092 
0.755453 -1.27582 0.265841 0.69617 -1.27023 0.218703 0.793656 -1.20801 -0.0449216 
0.637042 -1.20769 -0.0561624 0.672362 -1.34643 0.00780779 0.715414 -1.19079 -0.082203 
0.690743 -1.30819 0.278151 0.391029 -1.23457 0.281915 0.615144 -1.27214 0.224817 
0.912749 -1.2367 -0.0763384 0.301008 -1.2505 0.128437 0.657497 -1.20796 0.363635 
0.813912 -1.19503 -0.113194 0.921179 -1.31396 -0.00024995 0.822642 -1.22938 0.0380261 
0.9716 -1.20861 -0.0148966 0.656926 -1.22805 0.0465412 0.557439 -1.2191 0.378502 
1.08242 -1.22298 -0.287909 1.03373 -1.24152 -0.141546 0.504027 -1.22146 0.280699 
0.789781 -1.27893 -0.0126877 0.634872 -1.27397 0.285646 0.405174 -1.25079 0.13776 
0.952118 -1.20287 0.059615 0.851309 -1.22706 -0.208429 0.798078 -1.23312 0.160135 
0.838063 -1.21214 0.108765 0.74841 -1.22104 0.215905 0.903263 -1.24345 -0.00508605 
0.985397 -1.23838 -0.236416 0.891718 -1.25248 0.291633 0.886402 -1.21796 0.230352 
0.45186 -1.29942 -0.306769 0.167784 -1.33262 0.280769 0.145319 -1.35894 -0.0654417 
0.0370367 -1.33499 0.173746 0.286251 -1.34237 0.471563 0.255787 -1.33813 0.385018 
0.239794 -1.31342 0.165055 0.37955 -1.35342 0.285075 0.153428 -1.34835 -0.272811 
0.359487 -1.41001 0.0556785 0.611705 -1.2894 -0.213173 0.217753 -1.35347 -0.221999 
0.399459 -1.34728 -0.151231 0.371505 -1.35528 0.404706 0.398992 -1.29306 0.394597 
0.278051 -1.34832 0.208954 0.213323 -1.33853 0.00557087 0.485028 -1.2663 -0.187317 
0.413094 -1.3608 -0.0237151 0.583377 -1.34513 0.299898 0.433113 -1.28262 -0.142613 
0.30405 -1.28409 0.243152 0.552639 -1.36021 -0.0192995 0.376564 -1.27372 0.194391 
0.331403 -1.29843 0.0617326 0.330407 -1.26187 0.445483 0.508654 -1.22754 -0.0834875 
0.623455 -1.4128 0.0996638 0.543746 -1.25128 -0.240613 0.212482 -1.28192 -0.175291 
0.568452 -1.35595 0.0416638 0.541661 -1.30124 -0.0339865 0.32784 -1.26214 0.297871 
0.451176 -1.2885 0.450278 0.579736 -1.33509 0.469957 0.446517 -1.281 0.264252 
0.511104 -1.29965 0.29093 0.451864 -1.36116 0.112103 0.615911 -1.3038 -0.047856 
0.643928 -1.22745 -0.214002 0.972739 -1.28524 -0.284452 0.570442 -1.28648 0.172207 
0.47476 -1.28627 -0.250692 0.764543 -1.28925 0.343902 0.64545 -1.32735 0.220655 
0.577114 -1.23897 -0.0539543 0.999431 -1.2667 -0.0442913 0.741673 -1.25487 -0.0611739 
0.684789 -1.29041 0.0494038 0.876622 -1.34922 0.162147 0.603193 -1.25474 0.0796384 
0.78022 -1.23222 0.388022 0.790582 -1.24154 0.464763 0.54555 -1.26312 0.232728 
0.825967 -1.35954 0.207655 0.621962 -1.22533 -0.144846 0.687867 -1.23269 -0.0332646 
0.553114 -1.24096 0.123667 0.732389 -1.23673 0.0211163 0.808429 -1.30048 0.177912 
0.828867 -1.2506 0.340841 0.68126 -1.26713 0.329736 0.809162 -1.22666 0.532537 
0.912666 -1.24749 -0.369578 0.769521 -1.31009 0.0490195 0.437571 -1.25607 0.192601 
0.723891 -1.22675 0.535002 1.16359 -1.22126 0.0116426 0.628896 -1.26641 0.530067 
0.734231 -1.22569 0.317612 0.704871 -1.24505 0.415679 0.578894 -1.24358 0.0152464 
0.958768 -1.293 0.219267 1.10579 -1.23869 -0.167245 0.838869 -1.30532 0.0441631 
0.976803 -1.22614 -0.092275 0.908169 -1.28983 0.0618206 0.616206 -1.23689 0.147364 
1.32158 -1.19725 0.526034 0.73872 -1.25649 0.160931 0.939951 -1.22546 0.194094 
0.952046 -1.20845 0.423045 1.21204 -1.26367 -0.182957 0.905025 -1.232 0.0976662 
1.04494 -1.22601 -0.0080712 0.863899 -1.23348 0.171968 1.10033 -1.25838 -0.0324661 
0.963304 -1.26312 0.0318386 0.0866572 -1.41341 -0.246677 0.28589 -1.36066 -0.213148 
0.430077 -1.40919 -0.397639 0.0351688 -1.35954 0.315601 0.213216 -1.3212 0.482541 
0.0966121 -1.40799 0.156598 0.216663 -1.34411 -0.402017 0.500307 -1.31852 -0.348267 
0.0870814 -1.35982 -0.381531 0.493632 -1.3476 0.459649 0.250998 -1.27902 0.529061 
0.147221 -1.35436 0.379505 0.241009 -1.41179 0.297786 0.0966122 -1.35824 -0.0126561 
0.276942 -1.32017 -0.156493 0.0800789 -1.3588 -0.289014 0.472027 -1.35384 0.309846 
0.34858 -1.40768 -0.0292241 0.129583 -1.34343 0.230503 0.213168 -1.33467 0.0980706 
0.219523 -1.29567 0.291492 0.320418 -1.29145 -0.294911 0.270921 -1.34801 0.0404778 
0.422396 -1.31827 0.166065 0.0824549 -1.29268 0.215246 0.515747 -1.30068 0.418952 
0.893124 -1.30022 0.533049 0.547042 -1.35577 0.420343 0.240717 -1.29492 0.228723 
0.318102 -1.35522 0.157037 0.318816 -1.35427 0.0926785 0.366982 -1.28851 -0.232312 
0.520292 -1.33301 -0.241332 0.492538 -1.2928 0.204119 0.548569 -1.2259 0.527673 
0.644506 -1.28725 0.408202 0.776753 -1.34072 0.462277 0.423618 -1.34423 0.228884 
0.676798 -1.41468 0.136508 0.589176 -1.22277 -0.399396 0.601067 -1.35843 0.188462 
0.854234 -1.22712 -0.316169 0.390818 -1.29517 -0.298408 0.828406 -1.2998 0.283797 
0.759032 -1.28957 0.419793 0.332655 -1.28437 -0.171994 0.571278 -1.27629 0.288658 
0.67012 -1.27277 -0.166643 0.490129 -1.24969 0.145408 0.879533 -1.29186 0.214297 
0.970304 -1.38754 0.0887516 0.535618 -1.28035 0.0564818 0.995187 -1.25535 0.443799 
0.648731 -1.33019 0.341104 0.941794 -1.29609 -0.0630752 0.671497 -1.2108 -0.283746 
0.725603 -1.22908 -0.145195 0.791258 -1.3042 -0.0807206 0.820953 -1.34985 -0.0455395 
0.739899 -1.31837 0.17796 0.702631 -1.3551 0.138523 0.859647 -1.29909 -0.0262997 
1.00893 -1.24926 0.0865531 1.06215 -1.27494 0.0385707 0.912256 -1.25105 -0.140034 
0.7869 -1.28885 0.11487 1.10903 -1.28517 0.393726 1.0043 -1.2468 0.189037 
0.818628 -1.24339 0.228995 0.698409 -1.25827 0.11099 0.931395 -1.36158 0.216219 
0.857243 -1.28508 0.118881 1.19578 -1.36102 0.117237 0.947636 -1.35367 0.14378 
1.12381 -1.25909 -0.0981378 1.02645 -1.26092 0.275363 0.763053 -1.22449 0.0950674 
0.992967 -1.35443 0.196329 0.297589 -1.4153 -0.358873 0.199596 -1.37214 -0.327224 
0.0322034 -1.4135 -0.034602 0.441322 -1.28069 0.531353 0.0339859 -1.41171 0.1913 
0.0880428 -1.32444 -0.10703 0.340215 -1.30687 -0.394474 0.0369042 -1.3621 0.0211667 
0.0326481 -1.34523 0.488203 0.34641 -1.40639 0.198501 0.151678 -1.41314 0.444405 
0.323911 -1.34692 0.532516 0.0880709 -1.39514 0.227365 0.326573 -1.35888 -0.26553 
0.218172 -1.35079 -0.128994 0.247929 -1.41429 -0.201181 0.124804 -1.33757 0.153012 
0.311897 -1.29155 0.501985 0.0914767 -1.33719 -0.219846 1.00547 -1.41418 0.472964 
0.234074 -1.40735 0.202615 0.218296 -1.34171 -0.0602002 0.403426 -1.35844 -0.282329 
0.15093 -1.32357 -0.00109714 0.582362 -1.41374 0.215433 0.468984 -1.4131 0.144628 
0.452247 -1.28907 0.341084 0.273833 -1.35697 0.322771 0.194252 -1.36246 0.157579 
0.311489 -1.34572 0.270456 0.802586 -1.4127 -0.226413 0.19021 -1.38814 0.264685 
0.356636 -1.34239 -0.0620912 0.161696 -1.30576 -0.120768 0.394472 -1.41526 -0.141333 
0.293256 -1.3543 -0.0873487 0.465374 -1.33987 0.396008 0.479128 -1.25495 0.394916 
0.297839 -1.35992 -0.0221238 0.358405 -1.34945 0.0163023 0.800904 -1.29764 -0.212213 
0.378924 -1.36167 0.155185 0.336233 -1.34528 -0.179598 0.352536 -1.29995 0.131931 
0.377611 -1.29362 0.256163 0.34736 -1.33269 0.211687 0.525972 -1.23585 0.436723 
0.447918 -1.29515 0.108861 0.734842 -1.2594 -0.210315 1.05805 -1.36702 -0.147652 
0.310182 -1.30423 0.00398303 0.443679 -1.30485 -0.019815 0.836481 -1.41477 -0.140652 
0.613573 -1.36233 -0.0114336 0.649992 -1.36311 0.27517 0.501471 -1.35076 0.244421 
0.518296 -1.26079 0.345309 1.14793 -1.36794 0.380231 0.628739 -1.36895 -0.0746834 
1.12055 -1.28382 -0.219279 0.725246 -1.29687 -0.116671 0.853554 -1.32465 -0.107629 
0.686947 -1.3636 -0.0514636 0.746245 -1.34163 -0.00649244 0.897861 -1.35459 -0.0555527 
1.05007 -1.2361 0.467567 0.635963 -1.31482 0.0923139 0.840961 -1.41501 0.253964 
0.652726 -1.25811 -0.0945867 0.895553 -1.35379 0.0898459 1.09816 -1.31899 -0.00112241 
1.01077 -1.31118 0.00853198 0.813368 -1.37075 0.0466208 0.753393 -1.33959 0.10203 
0.695573 -1.29835 -0.0353136 1.05044 -1.34978 0.15492 0.854844 -1.41217 0.0914348 
1.18056 -1.2316 0.410071 0.994626 -1.29005 -0.105997 1.09752 -1.40835 0.172916 
0.96327 -1.37555 -0.0366684 0.971498 -1.31625 0.0849877 0.859213 -1.20955 0.455308 
0.0341698 -1.37732 -0.227734 0.0314945 -1.41421 -0.173475 0.0354917 -1.41021 0.467884 
0.0724057 -1.41424 0.307856 0.0838549 -1.37135 0.528368 0.0998678 -1.41553 0.479692 
0.07702 -1.41064 -0.339165 0.166904 -1.39474 -0.39495 0.384448 -1.36053 -0.403686 
0.0336249 -1.41208 -0.285938 0.051308 -1.41294 0.0665657 0.264732 -1.4091 0.470981 
0.0355815 -1.41055 0.363987 0.240232 -1.4087 0.370455 0.142617 -1.41182 0.527249 
0.301238 -1.35417 -0.332173 0.142948 -1.41429 -0.331465 0.14581 -1.41471 -0.269126 
0.640454 -1.41014 -0.320174 0.424295 -1.41293 -0.237046 0.115818 -1.41367 0.0604297 
0.0974885 -1.34391 0.422081 0.392049 -1.33181 0.529311 0.109645 -1.35188 0.315629 
0.500946 -1.4062 0.400669 0.17501 -1.3714 0.0533402 0.310269 -1.40789 -0.168356 
0.292557 -1.41419 0.0897382 0.2098 -1.40955 -0.0930465 0.355135 -1.3489 0.469609 
0.316694 -1.32226 0.415513 0.291425 -1.40986 0.249618 0.713847 -1.35033 0.518679 
0.207113 -1.35179 0.332056 0.410894 -1.3501 0.349666 0.453615 -1.34853 -0.224168 
0.383521 -1.3558 -0.218959 0.0654475 -1.35874 0.109024 0.455316 -1.40706 -0.173 
0.243157 -1.35271 0.267315 0.263578 -1.35817 0.128587 0.420472 -1.35384 0.450634 
0.336739 -1.32097 -0.122274 0.457248 -1.41043 0.0499437 0.621459 -1.28621 -0.382274 
0.523274 -1.29211 -0.290438 0.569894 -1.41475 0.0649554 0.518695 -1.28591 0.489658 
0.648232 -1.41098 0.225412 0.550317 -1.35131 -0.296722 0.456607 -1.41397 0.209114 
0.680575 -1.36146 0.394782 1.07269 -1.29141 -0.269873 0.462878 -1.28386 -0.07974 
0.427849 -1.34137 -0.0859139 0.501884 -1.32632 0.0148957 0.438301 -1.34185 0.037754 
0.529248 -1.3313 0.355547 0.57145 -1.28978 0.535691 0.942795 -1.25487 0.531368 
[...]
POINT_DATA 1274
FIELD FieldData 10
VELOCITY 3 1274 double
-9.2477746299e-06 -3.6581382848e-05 -8.963350648e-05 -0.00024808722612 3.3022090169e-05 6.3840292034e-05 -0.00018755127384 -4.2390637318e-05 0.00015696633815 
-5.1264936099e-05 3.5353774629e-05 9.0047833636e-05 -0.00014685872452 -3.2700731653e-05 5.2831606448e-05 -8.6736204333e-05 7.7588473013e-05 0.00019033944677 
-0.00023631244382 -5.0770283488e-05 -7.6489352877e-06 -0.00025429625439 1.3153641468e-06 -0.00012445559773 2.1288814306e-05 6.560496445e-05 -0.00017174069122 
6.1492774478e-05 -0.00011341666553 -0.00013388014732 -0.00015043999767 5.5546985933e-05 -8.4072428823e-06 -0.00021048291426 -0.00027573886037 -0.00010031848666 
-4.7159854377e-05 -0.00012084676585 4.7738419942e-05 -8.0257905176e-05 -1.1215148604e-07 -1.4084252638e-05 -6.0208052523e-05 -1.518621976e-05 4.1000382422e-05 
5.7654003296e-05 7.9648298945e-05 -3.5261105679e-05 2.8524790241e-05 2.7019858261e-05 -3.0443945936e-05 -0.00028301845936 -0.00014800068873 -6.9540879123e-05 
-1.7727592151e-05 -0.00018430110282 -0.00023860083524 -4.4232933026e-05 3.2621557596e-05 8.561091337e-05 0.00037309601969 -8.7521766534e-05 4.2210679127e-06 
0.00012186990209 -8.7819750362e-05 -0.0001752987284 8.1031625599e-05 -4.1471871461e-05 9.3956572862e-05 -0.00011912394754 -2.8954743409e-05 1.5327902322e-05 
-0.00011838548466 -0.00010762754893 0.00021901523891 -0.00016474326757 8.8691486832e-06 9.0496748727e-05 -4.3221246787e-05 -0.00011866789263 -1.3019940688e-05 
-0.00026249148635 -0.00010238518076 -4.605431914e-05 -0.00016309684183 -0.00013116148958 3.5483499581e-05 -0.00030730611962 -5.8474427279e-06 -0.00021445984528 
-0.00019816998165 -6.8938080226e-05 0.00020456936771 -1.4994519736e-05 3.0539966871e-05 -0.00020865377124 -0.00021023860386 -0.0001850154158 -2.125125361e-05 
2.2165894702e-05 -0.00020900504355 -8.3604401957e-05 0.00012678574441 4.5186581161e-05 -5.4240749422e-05 9.2630500042e-05 -0.0001590258386 -1.0399182029e-05 
-0.00011410076371 -0.00016444283272 -0.00019555545409 -3.8932270803e-05 -0.00022097427223 -7.3352436753e-06 -5.6690952111e-05 -9.7260858236e-05 -7.5424618592e-05 
0.00033603280954 -0.00030914558299 0.00025812444651 -8.3228434196e-05 -0.00031240979237 0.00011515433823 -2.5486699118e-05 -2.3466090787e-05 -0.00014285869395 
-7.6282514449e-05 -0.00014706917312 -0.00025882749872 0.00014199241601 -6.085742628e-05 -0.00015268695779 -0.00019890054541 -2.5872554628e-05 0.00034527342432 
0.00015914550426 -0.00020572928667 9.2325642867e-05 1.6511753878e-05 -0.00016656207254 5.0211318815e-05 -0.00047603140575 -0.00015166370937 8.449078092e-05 
-0.00021025132385 -5.3378467745e-06 -2.4581449365e-05 -7.0860094098e-05 -7.5897486007e-05 -2.103967871e-05 3.6936092773e-05 -7.5591735691e-05 4.5654777598e-07 
1.158405569e-05 -0.00035996531864 0.0001077768199 -0.00017674555192 -6.5480314964e-05 -9.2737760572e-05 -0.00016029247597 0.0001130447164 3.9633613478e-05 
-0.00010919729631 -6.9110594223e-05 0.00015379608497 -7.7533026554e-05 -2.9498157673e-05 -9.3589902869e-05 0.00010923800583 -8.2788859104e-06 9.0477460463e-05 
7.7530232692e-05 1.6661301847e-07 3.9929909524e-05 -6.8360594805e-05 3.893376431e-05 4.6552452622e-05 -7.2491444146e-05 -4.5195390223e-06 0.00011563700262 
-0.00016926603301 -1.1995538089e-05 0.00017710653394 -0.00017563973259 -0.00010214034445 -1.0638891081e-05 -0.00028422738968 -4.132749104e-05 -1.7388471766e-05 
2.6020266741e-06 -6.3750485113e-05 0.00015564331066 -0.0001565965491 -0.00022540214193 0.0002312606426 -7.6543786575e-05 -0.00014145504921 -1.145824713e-05 
-0.00027017271799 5.1474710053e-05 5.598227466e-05 -3.9494723917e-05 1.9295812912e-05 7.0991606005e-05 -0.00012027187564 3.3557591871e-05 -5.1653250285e-05 
-0.00013429316218 -2.6364528151e-05 7.9825342842e-05 -0.00019168391902 6.1089011463e-05 0.00018045175534 -0.00015172223558 -2.4836400542e-05 -2.0271935172e-05 
-1.9767353049e-05 -7.4993994519e-05 -4.6140082545e-05 -0.00017504773067 7.1577780937e-05 -2.2403827889e-05 3.9122492763e-05 -0.00010266926354 -0.00017606875975 
-6.0453118683e-05 3.6977137059e-05 0.00014894933881 -0.00019967376959 -0.00011082779727 6.5099955825e-05 2.6584063668e-05 -7.5201648795e-05 8.0763134249e-05 
4.4001860791e-05 4.5037073856e-05 0.00019711904807 0.00032929613496 9.2743203106e-05 0.00016236499632 -0.00024068524723 1.3734556809e-05 0.00010091874064 
-0.00026008670192 -9.6946639723e-05 -5.482631969e-05 -0.00024512376591 -0.00016875428909 7.7416871162e-05 4.2418874705e-05 -0.00010512017443 5.4129273716e-05 
3.4775867068e-05 -0.00025502688417 -0.00010921249672 -0.00014344559308 -3.3115268064e-05 -0.00020730621703 0.00019487442804 -0.00018154027265 -0.00014655409821 
0.00025702319237 -0.00015834693019 6.0717963407e-05 3.0445313858e-05 -0.00016705032995 0.00011593401024 1.0207632067e-05 -0.00019556072032 -9.2471252786e-05 
-0.00023528239617 7.1597556317e-05 -5.6297407268e-06 -0.00011616843604 -4.3599460466e-05 1.2844830233e-05 -0.00012075304649 -1.0157125813e-05 -6.692719396e-05 
3.4162168925e-05 -0.00028290050027 -0.00019397259529 -2.0979428724e-05 2.1507630405e-05 0.00016066020076 -4.0878444605e-05 -0.00035498969727 -0.00031590171206 
-1.7291448492e-05 3.6478161129e-05 -3.8416166078e-05 0.00021384524729 -6.5282969783e-05 0.00014967441169 4.7094981885e-05 -2.0465647405e-05 -0.00012603297314 
-8.0334222384e-05 8.8378930335e-06 -5.1888259051e-05 -0.00025119114008 2.6215542429e-05 6.8823903752e-05 2.2694006351e-05 -4.4913576747e-05 -0.00018252448643 
-0.00018668768668 9.9009264809e-05 7.9848427738e-05 -9.5538804958e-05 -0.00026957952087 -0.0001381832397 1.8725065644e-05 -0.00011865359925 -0.00023213821234 
-3.9018391934e-05 -0.00028171479071 -0.00018688301877 -5.0010710042e-05 -7.9129901592e-06 -0.00020073627311 -4.484867735e-07 -4.0513113104e-05 -0.00013772232621 
5.2099913435e-05 -0.00020291220844 4.9920157411e-05 -4.2868189512e-05 -2.4610716179e-05 -0.00016744587582 -7.8847461719e-05 6.0923157665e-06 7.9234771092e-06 
9.5615797421e-05 -9.0956315683e-05 0.0001322441278 -0.00014975031862 -0.00027763094789 7.5176268726e-05 -0.00015596342771 -6.5885263214e-05 -7.0101051844e-06 
-5.1683614343e-06 2.4709968049e-05 3.2515006971e-06 9.10660834e-05 -8.9960608393e-05 -0.00014538445981 -3.2532747217e-05 -6.2047748042e-05 -3.0078147364e-05 
-1.3842377811e-05 1.3260227858e-05 -3.6179686468e-06 -4.6893953139e-05 9.2168032853e-05 5.5412377618e-06 6.2891732791e-06 -0.00027196909651 -0.00018384006607 
0.00016322988459 -0.00034442815038 -0.00016853569888 8.6597422243e-05 4.583226142e-05 -0.00012637714055 -0.00026087061387 3.3512240898e-05 -4.0135199343e-05 
-0.00014484196555 -8.8428578237e-05 7.8520891306e-05 -8.7878416215e-05 -5.3194549517e-05 3.8898150716e-05 -0.00012602800881 -6.1594635331e-05 -0.000121397184 
-1.9692752727e-05 -4.5362681312e-05 -1.8993054848e-05 1.6707736996e-05 -0.0001000502311 -0.00010884506493 -0.00028118577644 -0.0001545660425 0.00037495382207 
-0.00027552515985 -0.00020452512078 6.1838828152e-05 0.00015034072753 -0.00023145507573 -0.00014372583153 -0.00012000314347 -1.0107479387e-05 -0.00010512559193 
-0.00017365695744 -0.00019748837074 -8.7309155778e-05 3.7414941166e-05 -1.2124762594e-05 -0.0001299359509 -0.00028157675779 -0.00015196581912 -0.00027304301936 
-4.3217765078e-05 -0.00026310938222 2.1230154136e-05 -3.8773223141e-05 -1.4387053324e-06 -2.6848239473e-06 -3.4279320714e-05 9.7443905548e-06 -2.2208084625e-05 
6.0986034718e-05 1.3082615954e-05 -3.9081220627e-05 -9.5212396279e-06 4.8202506464e-05 0.00018993713665 -4.5431015968e-05 -6.3378720621e-05 -3.5955378186e-05 
-7.3082841959e-05 7.0328069888e-06 -0.00012032008013 2.8232228805e-05 1.9300800854e-05 -5.2174200184e-06 -0.00021180600036 -4.4005546278e-05 2.3280853058e-05 
-1.2617725615e-05 1.6173417923e-05 -2.5149009989e-05 -3.4533928239e-06 -2.5800217022e-05 -0.00011367561891 -5.5362622422e-05 -4.2402004897e-05 -6.3068026405e-06 
8.7685088561e-05 -4.3251490562e-06 5.8897005147e-05 -4.1018160428e-05 8.2512389975e-06 4.9262411551e-05 -7.6551879929e-05 -3.7243683653e-05 -0.00010737509803 
-6.0175642493e-05 -0.00018395145385 9.9481241332e-05 -3.4794410432e-05 8.2070445402e-06 -4.288583803e-05 -0.00023963890295 3.976545476e-06 -0.00010021630813 
-0.0001432842898 0.00014206557495 0.00010865140157 -9.3472146122e-05 6.0411754714e-05 1.7240531122e-05 -9.6097174978e-05 -7.0681113031e-05 -6.0355880811e-05 
-0.00013325476519 1.0020386919e-06 3.493305709e-05 -0.00020305199132 1.2120286217e-05 1.7141392774e-05 2.6431391031e-05 -3.226354225e-05 2.5884017657e-05 
-6.9087328804e-05 1.4885363034e-05 -8.4095813694e-05 -0.00016322573254 -5.5163789664e-05 -4.7906559452e-05 0.00027982862861 -6.9676108942e-05 -1.5433564764e-05 
-0.00011924472024 2.3965268046e-05 0.00014162977862 9.7029130279e-05 -7.0873931037e-05 -5.4281251799e-05 -0.00014149444384 -1.2922574894e-05 3.6941512601e-05 
-8.8055218895e-05 5.5646297045e-05 2.5004829979e-05 -0.00014488956941 3.9502599233e-05 0.00014677030354 -0.00024461005621 -4.4631189457e-05 3.9809984577e-05 
-2.3781375327e-05 -0.00020531129429 6.1652144429e-05 -0.00010896579816 1.441413721e-06 4.9156760491e-05 5.5867951207e-05 -8.3777980419e-05 1.5067029656e-05 
-0.00010386142986 6.1289410381e-05 -2.4914292133e-05 -0.00020995166888 8.2509874366e-05 0.00024872193995 -0.00025501580512 6.5459108929e-05 -0.00010785492889 
-0.00011718937467 -5.1800477429e-06 1.1788073043e-05 5.0124468235e-05 -0.0002772524718 5.5540132759e-06 -0.00012576717066 4.1340033693e-05 -1.4861420453e-05 
5.3156432288e-05 -0.00016183421228 0.00018442286871 -0.00019810297084 -3.059459469e-05 8.1837991355e-05 -7.508791031e-05 -0.00011386905822 9.8042879974e-05 
-5.2578977323e-05 5.8870291251e-05 -9.7890880702e-05 -0.00015412721502 1.7900445601e-05 9.3638632466e-05 -8.7841135817e-05 -5.4297969235e-05 -0.00011035805362 
-5.3833873611e-05 -0.00031257078082 0.00010437635536 -4.3592989053e-07 -0.00011485662668 -3.924817348e-06 0.00011592101834 5.5609681131e-05 6.6847889654e-05 
-4.2755550844e-05 0.00017872203205 1.8184895511e-05 1.5048575451e-06 -5.3825940333e-05 -2.9283760957e-05 0.0002302110158 -0.00011558941752 -7.040029194e-05 
6.2538416218e-05 -4.8769019475e-05 8.5564249276e-07 5.2135224426e-05 -4.1268027325e-05 0.0001087735018 -0.00018605247181 -0.00021862465826 -0.00012716904026 
-0.00014465467205 -9.0210090554e-05 -6.980107757e-05 -4.5889503454e-05 -6.1675047048e-05 -3.2060581988e-05 9.6886143457e-05 -5.1204659263e-05 -0.00016360137206 
-2.9409900319e-05 -9.9760093791e-05 -0.0001600778846 -0.00027434987443 -0.00010650424651 7.7287700039e-05 1.1427647503e-05 -5.9358934389e-05 0.00012578356239 
0.00011803878181 -1.0746722706e-05 -0.00024594695666 9.6427386528e-05 -0.00011931359064 -9.8746682548e-05 -7.1581766217e-05 -5.8691064704e-05 0.00022833671483 
1.5985134788e-05 -0.00013816739825 -0.00013763488582 -0.00027792398511 -0.00065742087797 -0.00058906012779 -6.3341695481e-05 -4.6698927705e-05 8.7387975408e-05 
0.00012347965886 -0.000112311694 -4.5335982949e-05 -0.00016331950894 -1.4634000819e-05 1.6203507362e-05 -0.00020343102657 -0.00024612091182 -0.00034852559741 
-4.4143365192e-05 -0.0001023236629 -2.2111401073e-05 -4.9167457997e-05 -0.00010540994996 7.2036129163e-05 0.00019300003436 0.00012200772334 0.00013925754609 
2.4269718984e-05 -0.00014482132254 -0.00017751792829 -2.3199580558e-06 -0.00017555114319 2.989584071e-05 -0.00011918446034 -0.00021725879277 -0.00017316163515 
-0.00013115906545 -0.00052496728931 -0.00024281328029 0.0001077475087 0.00016792848448 -0.0001848913003 2.180963891e-06 3.7672930654e-05 -9.2415671214e-06 
1.6050383259e-05 -1.5587334218e-05 -6.3224742341e-05 -7.4520067788e-05 -4.5384914822e-06 -2.0167061393e-05 1.6061572057e-05 -0.00026087075583 0.00017410009784 
4.9650403703e-05 -0.00017328089678 -1.6572649121e-05 -4.2765587887e-06 -1.9394560813e-05 9.2236441024e-06 1.7401014949e-05 1.2130288366e-05 5.5713071336e-05 
-6.4662217592e-06 5.4087041696e-05 -0.00018010383043 -0.00010978937247 -8.091933766e-06 1.4166487012e-05 -0.00028691289872 0.00020493145537 -0.00018854701218 
-9.508968808e-05 -2.4578049501e-05 2.9304135465e-05 -3.4134163677e-05 6.639318122e-05 1.8824126493e-05 -3.2048968524e-05 -7.4179124328e-06 -3.2481963193e-05 
-4.7395712704e-05 -0.00012545867377 0.00015497228381 -0.00061799765896 7.3975388516e-12 0.00080473983804 -0.00017927429049 4.7229498593e-05 3.4271876957e-05 
-5.9639512643e-05 -5.2213676466e-05 -5.5389621485e-05 -6.4774472467e-05 0.00016551988694 -7.5315470923e-05 -0.00012654523907 1.3320704325e-05 -1.304587395e-05 
-0.00014244058606 1.7297923545e-05 -6.5019668874e-05 0.00011607614308 -0.00016673386057 0.00014541463663 -2.1981067443e-05 2.7474566699e-05 -1.4351533314e-05 
-7.6211452362e-05 -7.3044271544e-05 -3.5915296839e-05 -1.6957676136e-05 1.6981863817e-05 0.00014416213315 2.849990427e-06 1.0127378741e-05 7.0561197488e-05 
-0.000247737284 -4.550883049e-05 5.6144168966e-05 -0.00013694345691 -5.739756331e-05 4.4207525548e-05 -0.00018139960921 1.6823791904e-05 -2.7387925082e-05 
-0.00010123498996 -5.3676963508e-05 5.688631581e-05 8.5874784905e-05 -1.2349209297e-05 -0.00015230119463 -1.5169715887e-05 -0.00015927411054 1.9824654234e-05 
0.00021792860936 -6.9240959484e-05 8.1303114169e-06 2.7658411032e-05 2.2471740949e-05 9.7594619923e-05 -2.5384935955e-05 -4.8564243834e-06 0.00016444255657 
6.9823987467e-05 -6.9298113695e-05 -3.4459022826e-05 -0.00017922494383 -7.643588387e-05 -5.5857893956e-05 -0.00010853283439 -8.8346430228e-05 5.029219709e-05 
-0.000161881904 -3.5034255716e-05 3.9913734174e-05 -0.00019193829433 -3.2837184702e-05 1.5440699698e-05 7.1726611825e-05 -0.00016283531022 -9.1456164381e-05 
-8.301906876e-05 6.5176487847e-06 4.6114433078e-06 -2.5394555323e-05 0.00019085370795 -0.00014811675916 -0.00015720571804 -1.2730320046e-05 3.0420028387e-06 
-3.5017661235e-05 2.7616331673e-05 -4.9085094569e-06 -5.791388196e-05 -2.7415872397e-05 6.1921744255e-05 -5.8978025431e-05 -0.00016770717296 5.6712258895e-05 
-1.9334114471e-05 -1.8730278696e-05 -4.5881586671e-05 -4.737524199e-05 -0.00040309028646 8.5248698076e-05 -1.8791842176e-05 -3.4071862228e-05 7.8977598926e-06 
-0.00019159698087 -3.4090952802e-06 2.7441057677e-05 -4.0411142392e-05 -0.00012737043488 -5.2081760807e-05 -8.5196787133e-05 -2.1242064897e-05 7.0408034805e-05 
-3.9347564065e-05 -4.9568362166e-05 -0.00017412926843 -4.7377258333e-05 -9.3182004845e-05 0.00011949875774 -0.00020727325041 -7.8339314529e-05 -1.2005288111e-05 
-0.00011629365022 -0.00022717377994 -6.895101466e-06 6.1971854369e-05 2.5678556926e-05 4.0526751588e-05 -5.6148030367e-05 -9.8425567587e-05 2.9929971808e-05 
6.2921075498e-05 -7.8178257304e-05 -0.00012323657049 6.875734444e-05 -0.00024881836021 -0.00038868357989 -0.00018488955788 -5.5734018019e-05 0.00013100567014 
3.6465494509e-05 3.3377334724e-05 2.1288389234e-05 -0.00014631437399 -0.00010625349216 -2.4224574243e-05 -1.6749020202e-05 -1.2114650138e-05 -1.5556176142e-05 
0.00010641914732 2.319732268e-06 7.7711656475e-05 0.00013394621981 3.3576015943e-05 6.727029603e-06 -0.00022028242389 -1.5152776324e-06 -0.00021997318554 
-6.995410331e-05 -0.00025555812298 -0.00015471488079 -8.3515512219e-05 -5.7379637371e-05 1.4133662984e-05 -3.5004901257e-05 -0.00027332140347 -0.00023548541556 
3.4158815156e-05 -0.00011806804673 -7.3484955193e-05 0.0002292324339 -0.0001196490915 5.997342077e-05 -0.00018097780398 -3.8877938099e-05 0.00023574704678 
-0.00020860037451 -0.00014377311739 -0.00016923020918 -6.7715171466e-05 6.2657648092e-05 -0.00012468769569 2.7438652434e-07 1.6110566733e-05 0.00023423877981 
0.00019454227719 -0.00024355070854 -2.3530010443e-06 0.00012938414306 3.1596752483e-06 0.0001443526366 -0.00027817088611 -5.0695210191e-05 -0.00027453700429 
-0.00014624933006 -6.1843923121e-05 9.5960373595e-05 -8.809225604e-05 0.00011197770356 1.6416504623e-05 -0.00024371122886 -0.00016668241608 -0.00036253712454 
2.0576681706e-05 -4.7206571465e-05 -0.00020838284814 -0.0001351512957 0.00018750215145 -8.9166003355e-05 -1.5188677933e-05 -2.7824422046e-05 -6.8475938946e-06 
-5.3744686453e-05 3.5150292672e-12 0.00021754223253 -0.00019444243304 9.2196035152e-05 -3.3193862565e-05 9.2651061697e-05 1.7098349995e-05 0.0004020717485 
0.00012397939154 2.5925571859e-05 -0.00011654427592 -4.9747417098e-06 5.1559080974e-05 -1.3534221397e-06 1.4623310567e-05 -4.3848678214e-06 -5.3588297775e-06 
2.7701885962e-05 2.6581091027e-05 -5.5800964854e-05 -2.7492208451e-05 -1.8992280806e-05 -1.4168884129e-05 -0.00020758604493 -3.078387665e-05 -5.8400224609e-05 
3.8908340354e-05 2.9054650891e-07 0.00014855171396 0.00011445723468 -2.3018554372e-06 3.4486742791e-05 -0.00020153886249 -3.483477476e-06 0.00026421668533 
-0.00015265211099 -7.0256110044e-05 0.00011342005627 4.4401271219e-05 -5.4868370765e-05 -2.241957802e-05 -0.00011148221593 0.00010192082956 2.6817238972e-05 
5.5851544476e-05 -2.1934395372e-05 0.00012205916227 -2.5610800833e-05 -5.8059764677e-06 1.4615649306e-05 -4.9838651064e-05 2.4014470484e-12 -0.00010956749742 
8.8243587456e-06 3.5626710612e-05 -3.3027720775e-05 -8.9142448806e-05 3.1573016567e-07 -1.2401975048e-05 -1.2443132296e-06 1.2664564525e-05 0.00012824524594 
5.0256433269e-05 -1.7650962926e-05 -0.00024283016139 -7.0917476328e-05 -4.7769162749e-05 -0.00013318083304 -2.311479301e-05 7.6781811569e-05 -3.6723676228e-05 
4.6039740517e-05 -1.5505250243e-05 -3.5935479374e-06 -6.7107290091e-05 -0.00019430334768 -8.0211971346e-06 -0.00014422843862 -2.3357638994e-05 8.9773828256e-05 
-6.0616510366e-05 1.5333277118e-05 1.2076829483e-05 -5.8055734325e-05 -8.5336006283e-06 6.7444444817e-05 -4.0362700358e-05 3.3219273791e-05 0.00012125022609 
-9.7752280354e-05 -9.4442716156e-06 6.1576797043e-05 -0.00028992732327 -3.6392104465e-05 9.0806410163e-06 -5.3333655663e-05 -5.6363813592e-05 1.6354307362e-05 
6.9666446903e-05 2.9917128557e-05 5.9516878033e-05 -8.6975241997e-05 3.09169193e-05 -6.3185341827e-05 -0.00013243828699 4.9441964172e-05 9.7633037582e-05 
-0.00020480764315 1.6084609579e-05 -1.4054093148e-05 -6.2040831305e-05 -2.4731630708e-06 2.0091752305e-05 -0.00016228935114 -6.9976230492e-05 9.8420518378e-05 
9.9017297929e-05 -4.7483361773e-05 4.0150667444e-05 -0.00016369485716 -0.0001491526838 0.00018160803783 -2.19622359e-05 -0.00034665050613 -0.00012790080986 
-0.00021766450459 -4.5066563676e-05 -9.4706960776e-06 9.0144206818e-05 -7.5089785186e-06 -6.3094838907e-05 -0.00032556700946 -1.487378503e-05 0.00013454128663 
-0.00027078976352 4.950230797e-05 9.3439101171e-05 -3.4232940882e-05 1.1440616102e-05 -3.5443715129e-05 1.0950001329e-06 -8.9691268651e-05 -0.00013277130287 
-0.0001338149834 2.6935026402e-06 8.8473697635e-05 -9.0894984675e-05 -0.0001642644533 5.1936479248e-05 -0.00017182189937 6.6118676925e-05 -5.6240413888e-06 
-0.00023148368788 2.400437947e-05 0.00018658976726 -7.8165471263e-05 1.1964902225e-05 -1.6000985142e-05 -1.1724571299e-05 4.8923107778e-05 3.0481691383e-05 
-0.00020053951075 -0.00024858843528 -3.1999253121e-05 -6.3265869878e-05 -0.00010195329235 -2.6442156151e-05 -1.836312874e-05 -0.00016989760109 -1.3694937981e-05 
-8.139636258e-05 -4.9148450205e-06 3.8934592027e-05 -0.00015635218534 -5.812800379e-05 -8.1524954782e-06 0.00011617011909 -3.5316301923e-05 -8.4149032508e-05 
5.2327466931e-05 -0.00018681640882 -0.0003352807184 -0.00024299835399 -0.00028763926245 -0.00028971937631 -0.00015835807637 -6.0548027994e-05 -2.9391883387e-06 
8.6003658931e-06 -3.3441626839e-05 -0.00034263509758 -0.00011126941304 1.8831009217e-12 4.9845776734e-05 3.0759059446e-05 -5.0965566033e-05 -0.00019366200253 
-4.7472452411e-05 0.00015858773664 4.8356534923e-05 -0.0003246408784 -0.00014249398385 0.00013751286089 1.9033012803e-06 1.3667484219e-05 -0.00010020103993 
-0.00012624273622 -7.3865237311e-05 0.00016808050795 -0.00022163908439 -0.00018920080627 -8.9398526139e-06 -9.2025691422e-05 -3.8964503872e-05 -8.3684017319e-06 
0.0001752297088 4.755443503e-05 -5.1769980952e-05 -3.5265018849e-06 9.2821171873e-05 -1.2357540732e-05 -9.5507760604e-05 6.4524374643e-06 -5.7237730672e-05 