# vtk DataFile Version 4.1
vtk output
ASCII
DATASET UNSTRUCTURED_GRID
POINTS 1274 float
0.513781 0.551926 0.0379539 0.46997 0.650085 0.105132 0.488898 0.595518 0.268458 
0.495201 0.586494 0.0981979 0.42418 0.754721 0.0323157 0.42475 0.767734 0.120138 
0.475892 0.636634 0.212831 0.459477 0.668902 0.268648 0.394603 0.843466 0.0586731 
0.398767 0.811876 0.165438 0.446695 0.697426 0.214309 0.433466 0.737217 0.265757 
0.363528 0.901112 0.0319689 0.344463 0.966484 0.0527651 0.381734 0.877418 0.146352 
0.395394 0.84297 0.231735 0.345928 0.956138 0.260078 0.314796 1.03719 0.0387204 
0.391632 0.912232 0.086375 0.448894 0.89806 0.110128 0.3329 0.99458 0.130209 
0.409082 0.91384 0.218451 0.310708 1.03702 0.265121 0.352398 0.928545 0.187538 
0.282361 1.10003 0.0483961 0.328468 0.986617 0.200973 0.286893 1.10753 0.260298 
0.258582 1.16043 0.0336642 0.357844 1.11413 0.102795 0.302333 1.06781 0.10904 
0.289906 1.24939 0.0382188 0.30332 1.04428 0.200257 0.284054 1.09931 0.172085 
0.333833 1.25379 0.0921168 0.386328 1.15598 0.0381336 0.276059 1.14723 0.110116 
0.42221 1.14842 0.105948 0.261194 1.14932 0.208211 0.34024 1.10566 0.211139 
0.218917 1.25558 0.0332145 0.320991 1.18385 0.0538493 0.319979 1.1556 0.173576 
0.245201 1.19791 0.164308 0.287335 1.18226 0.26484 0.239583 1.22088 0.0932192 
0.373177 1.22945 0.0356631 0.236775 1.22968 0.236141 0.216201 1.25549 0.149124 
0.540364 0.470854 0.0302092 0.611483 0.295772 0.0936569 0.595716 0.358291 0.122814 
0.597246 0.346806 0.198972 0.57655 0.387768 0.2665 0.611217 0.311674 0.262134 
0.541278 0.468597 0.209695 0.509386 0.556205 0.218133 0.603613 0.328367 0.0358989 
0.566499 0.417928 0.15911 0.484085 0.623851 0.037876 0.607574 0.473138 0.0454866 
0.5462 0.474455 0.0985106 0.549996 0.447109 0.268472 0.565202 0.570492 0.262773 
0.527795 0.511539 0.159808 0.551393 0.667656 0.0308606 0.445698 0.710722 0.079172 
0.517705 0.697035 0.107067 0.472169 0.752198 0.178435 0.55185 0.547516 0.102443 
0.522955 0.656745 0.266704 0.446514 0.696536 0.145142 0.41551 0.77621 0.214676 
0.501039 0.679642 0.169126 0.555392 0.576379 0.168035 0.494472 0.778691 0.0923245 
0.536078 0.759285 0.14643 0.459722 0.813354 0.0363725 0.508559 0.723074 0.0397537 
0.484801 0.816627 0.150792 0.437601 0.834862 0.112849 0.365125 0.892766 0.269731 
0.499801 0.76835 0.260788 0.538867 0.616183 0.218981 0.563686 0.746544 0.220129 
0.468303 0.81448 0.213664 0.507609 0.704028 0.225885 0.460001 0.888064 0.0399461 
0.520303 0.852038 0.0355241 0.536275 0.789543 0.0326235 0.454122 0.874385 0.177614 
0.496137 0.848455 0.0948809 0.463761 0.868915 0.260663 0.438824 0.802161 0.269008 
0.417889 0.951025 0.0373627 0.373787 1.08799 0.0325893 0.46636 1.00316 0.0331282 
0.401386 0.995299 0.0954863 0.416814 0.946727 0.151334 0.469498 0.963504 0.0917454 
0.485439 0.939378 0.263605 0.419874 0.971328 0.261479 0.535468 0.9814 0.2689 
0.461572 0.949032 0.203634 0.384366 1.02237 0.0323962 0.365851 1.05271 0.0846839 
0.46283 1.03124 0.0899784 0.363091 1.06175 0.158261 0.395965 1.00352 0.196773 
0.441989 1.05001 0.264237 0.377443 1.02798 0.267487 0.48325 1.0017 0.237122 
0.458431 1.13423 0.038542 0.470577 1.08199 0.122973 0.427853 1.04069 0.139582 
0.360648 1.08904 0.269156 0.527429 1.17708 0.175968 0.490238 1.10067 0.267884 
0.407654 1.0871 0.213542 0.430289 1.13234 0.264219 0.445639 1.11879 0.16713 
0.358585 1.15916 0.260112 0.511597 1.18606 0.0380872 0.499089 1.14552 0.120555 
0.438279 1.20416 0.0341929 0.370038 1.19988 0.101338 0.3815 1.13213 0.165368 
0.338901 1.2356 0.260952 0.453338 1.16607 0.208013 0.403278 1.20543 0.222893 
0.469644 1.18979 0.26612 0.488004 1.25404 0.0362705 0.313051 1.21125 0.137271 
0.46124 1.24788 0.225573 0.300494 1.21166 0.203867 0.475341 1.21007 0.170048 
0.37378 1.22553 0.164428 0.639262 0.232309 0.180352 0.563742 0.413722 0.0317185 
0.660166 0.192623 0.0577835 0.660017 0.287876 0.213242 0.640314 0.240775 0.263508 
0.668762 0.174889 0.207409 0.642326 0.224409 0.115945 0.630718 0.403527 0.0363511 
0.591665 0.421679 0.0892581 0.527454 0.508748 0.265843 0.606462 0.485208 0.263218 
0.617253 0.291416 0.158453 0.640105 0.376765 0.246918 0.614551 0.459034 0.135472 
0.588979 0.545433 0.0375218 0.660985 0.42168 0.100804 0.534841 0.634817 0.131106 
0.605888 0.527327 0.147133 0.576842 0.522872 0.212094 0.593198 0.432178 0.220385 
0.613122 0.622679 0.266298 0.603721 0.716076 0.0390333 0.555435 0.608585 0.0642992 
0.57053 0.731865 0.099336 0.566917 0.696029 0.158445 0.600475 0.708217 0.268226 
0.592877 0.632866 0.175655 0.646003 0.637187 0.211788 0.571683 0.67066 0.224667 
0.597844 0.756578 0.159889 0.587414 0.66569 0.0953564 0.639465 0.785483 0.0390324 
0.562306 0.793807 0.0910127 0.540628 0.812498 0.190029 0.545819 0.830558 0.261832 
0.616676 0.772681 0.265258 0.515267 0.871462 0.211777 0.625828 0.70677 0.201956 
0.60066 0.818906 0.221282 0.585441 0.835561 0.0347552 0.561274 0.857241 0.0931199 
0.565821 0.907216 0.0397017 0.504054 0.941777 0.0315436 0.552395 0.907999 0.260437 
0.598931 0.965327 0.265548 0.52873 0.86128 0.146354 0.506599 0.920554 0.170627 
0.536406 1.00062 0.0519181 0.523445 0.913655 0.104401 0.47309 1.05724 0.191134 
0.469685 0.994087 0.155563 0.538174 0.987271 0.137247 0.518635 1.04452 0.269178 
0.570555 0.943234 0.19221 0.43681 1.06428 0.03478 0.538765 1.12249 0.0335701 
0.573466 1.06221 0.0351738 0.504382 1.06165 0.0328709 0.552301 1.10577 0.0954747 
0.522436 1.04845 0.103985 0.542302 1.00689 0.209013 0.503313 1.12358 0.204963 
0.5394 1.23209 0.0892465 0.575054 1.20979 0.0322881 0.564529 1.17465 0.122895 
0.522746 1.08796 0.153379 0.605252 1.08531 0.268672 0.540868 1.23574 0.159323 
0.534254 1.21043 0.23764 0.567509 1.12729 0.179182 0.557031 1.07128 0.214929 
0.553942 1.13477 0.259468 0.640714 1.20486 0.0423227 0.622918 1.20706 0.109721 
0.465714 1.21279 0.101025 0.648238 1.23361 0.221434 0.596233 1.19632 0.186219 
0.773203 1.1647 0.205718 0.678936 0.131 0.0397404 0.693293 0.119543 0.115267 
0.721564 0.0322018 0.193128 0.682136 0.133966 0.265509 0.697582 0.0951381 0.184263 
0.636799 0.261567 0.0387316 0.696927 0.314957 0.0396602 0.701658 0.225587 0.151208 
0.704914 0.26512 0.267352 0.64014 0.404531 0.173344 0.695614 0.199616 0.267447 
0.679486 0.325993 0.2667 0.663692 0.33626 0.138199 0.677808 0.456692 0.0403134 
0.655825 0.493125 0.0968041 0.650635 0.353454 0.0774293 0.685083 0.465595 0.157094 
0.651029 0.458623 0.216978 0.682431 0.278584 0.104645 0.730397 0.411502 0.198619 
0.691437 0.353584 0.20168 0.612283 0.642474 0.0351636 0.65965 0.523761 0.0349306 
0.635954 0.557694 0.0896126 0.595886 0.600056 0.119665 0.648543 0.604181 0.156787 
0.664447 0.681359 0.262129 0.639908 0.543782 0.269081 0.687733 0.580175 0.207343 
0.617657 0.576958 0.209794 0.674729 0.544399 0.150179 0.678798 0.513935 0.206479 
0.630432 0.712833 0.122883 0.658385 0.65109 0.0931935 0.698108 0.57109 0.0976285 
0.709397 0.624729 0.140766 0.717019 0.645486 0.206651 0.662609 0.820026 0.268701 
0.665906 0.669608 0.160798 0.624591 0.800806 0.11737 0.648385 0.873957 0.0391026 
0.68981 0.758915 0.0794719 0.707418 0.699507 0.0852732 0.681345 0.761145 0.149082 
0.638042 0.772957 0.203178 0.69731 0.714163 0.205241 0.614685 0.864756 0.265677 
0.582048 0.870096 0.18366 0.615206 0.966183 0.037251 0.668555 0.982356 0.0766426 
0.632326 0.866738 0.106646 0.644798 0.925007 0.0880618 0.587562 0.905124 0.124559 
0.610237 0.964689 0.138821 0.635728 0.981908 0.209815 0.679372 0.846314 0.147871 
0.635552 0.919579 0.23385 0.643757 0.860821 0.205842 0.63222 0.913642 0.16923 
0.631435 1.10597 0.0300627 0.642387 1.03674 0.038513 0.694932 1.08915 0.0358771 
0.575231 0.954188 0.0904407 0.596144 1.01805 0.0954315 0.668065 1.04053 0.115153 
0.57871 1.02842 0.260245 0.614281 1.0225 0.162053 0.672828 1.02834 0.183367 
0.616522 1.0873 0.0906171 0.623145 1.14069 0.138244 0.697619 1.16205 0.0370853 
0.595612 1.15155 0.0645452 0.581932 1.07416 0.14561 0.624246 1.05371 0.217035 
0.742291 1.1293 0.0836949 0.637141 1.13052 0.223784 0.661428 1.08961 0.167822 
0.603679 1.19331 0.26361 0.750307 1.20898 0.033559 0.792673 1.17828 0.102204 
0.690996 1.16751 0.106109 0.673935 1.19568 0.168681 0.677375 1.18514 0.261672 
0.721371 0.0826581 0.0341655 0.753149 0.120477 0.077432 0.718114 0.0492 0.120998 
0.784153 0.0575673 0.127966 0.723638 0.0410235 0.262223 0.736019 0.105106 0.24441 
0.707619 0.241134 0.0350558 0.749265 0.179808 0.0391973 0.76802 0.266053 0.0304516 
0.735501 0.178842 0.110695 0.726894 0.155927 0.172399 0.755907 0.165972 0.263424 
0.774601 0.229597 0.154514 0.770156 0.241161 0.263001 0.732183 0.208691 0.212734 
0.703955 0.390629 0.0363953 0.766334 0.327892 0.0314022 0.721868 0.333011 0.103276 
0.747384 0.25043 0.0926738 0.734731 0.416826 0.0925217 0.76546 0.372653 0.128615 
0.704778 0.387612 0.141759 0.748871 0.318364 0.262981 0.732815 0.280608 0.197379 
0.696907 0.421222 0.260496 0.724469 0.509935 0.0894289 0.750088 0.462773 0.0378085 
0.795343 0.48129 0.0869325 0.755289 0.467507 0.137721 0.791678 0.417842 0.171716 
0.676303 0.490845 0.266655 0.804894 0.511598 0.264175 0.77233 0.397964 0.260583 
0.742178 0.480536 0.245315 0.717872 0.546872 0.263652 0.670769 0.596851 0.0391126 
0.693107 0.663444 0.031532 0.73852 0.530468 0.176829 0.762011 0.578651 0.122723 
0.678434 0.611303 0.2674 0.75346 0.584153 0.216327 0.742972 0.619889 0.267491 
0.673352 0.723162 0.03137 0.747002 0.745698 0.111281 0.757625 0.689667 0.0384582 
0.728311 0.753133 0.0312101 0.747037 0.653466 0.0969054 0.74063 0.690959 0.261134 
0.689352 0.813511 0.208696 0.727536 0.68968 0.14738 0.752006 0.743294 0.179012 
0.681939 0.746999 0.269539 0.702314 0.931798 0.039981 0.718068 0.850324 0.034607 
0.681953 0.822041 0.0842843 0.694678 0.885299 0.0949249 0.740668 0.808114 0.158997 
0.739132 0.834757 0.260085 0.727238 0.765303 0.233659 0.681376 0.882985 0.265521 
0.712268 0.875047 0.20835 0.688003 0.948132 0.268914 0.718074 1.01713 0.0398216 
0.726446 1.06607 0.0890488 0.728852 0.9489 0.107504 0.689727 0.943223 0.205858 
0.672168 0.973985 0.139075 0.692238 0.915831 0.149695 0.731678 1.00621 0.154628 
[...]
POINT_DATA 1274
FIELD FieldData 10
VELOCITY 3 1274 double
0.000522853 -0.0011727 -2.62832e-05 0.000286024 -0.00057687 -7.72389e-05 0.000699216 -0.00167758 2.72056e-05 
0.000408273 4.96716e-05 -0.00161608 0.000567617 -0.000928314 -5.9111e-05 0.000384988 -0.000563502 0.000354478 
4.43222e-06 -0.000214976 -0.00047086 -0.000290858 -0.00092042 -9.7518e-05 0.000378924 -0.000757249 -0.000324677 
2.59925e-05 -0.000748939 0.000364025 0.000393774 -0.000519499 0.000710336 0.000384404 -0.0011141 -2.27612e-05 
0.000140212 -0.000780421 3.02713e-05 0.000448625 -0.000919706 0.000491689 0.000310741 -0.000713547 -0.000104364 
0.00028311 -0.000634661 -0.000188874 0.000278981 -0.000645462 0.000290527 0.000383554 -0.000964118 1.69921e-05 
0.000762576 -0.00102908 -0.000172779 0.000705136 -0.000623789 6.85592e-05 0.000422453 -0.00106271 0.000395643 
9.37441e-05 -0.000690269 5.42787e-05 0.000253404 -0.000596497 -0.000180553 0.000314109 -0.000610217 -0.000333162 
0.000374124 -0.000922739 -0.000310313 0.000240986 -0.000778158 0.000255462 0.000227415 -0.000609345 1.23919e-05 
0.000678683 -0.00168089 -1.27337e-06 0.000410676 -0.000925466 -0.000897552 0.000294727 -0.000762838 0.000120787 
-1.99911e-05 -0.00213025 -6.31365e-06 0.000371009 -0.000719572 -2.67192e-05 0.000309551 -0.000808829 -0.000139209 
0.000471144 -0.00121119 -0.000428383 0.00118449 -0.00134459 0.000373939 0.000285063 -0.000751847 -0.00011867 
0.000371493 -0.000912245 -0.000394579 0.000324637 -0.000744049 -0.000160058 0.000163632 -0.000821995 -6.1618e-05 
0.000133671 -0.000342948 1.32715e-05 0.000783994 -0.00182497 -0.000310151 0.000493594 -0.000750582 -0.000216181 
0.000321849 -0.000704486 -9.64925e-05 -3.99148e-05 -0.000598965 -8.08419e-07 0.000345704 -0.000786549 -0.000318781 
0.000650483 -0.00145167 1.23638e-05 0.000222842 -0.00054241 -0.000399518 0.000303418 -0.000775818 -0.000346077 
-7.67221e-05 0.0004335 7.17049e-07 -0.00149719 0.000124453 -0.000895466 0.000135514 -0.000283721 0.000932056 
0.000358185 -0.00095353 0.000686117 0.000521716 -0.00242298 -0.00102112 0.000845732 -0.00213656 -0.000330586 
0.000525077 -0.000397918 -0.000484804 0.000523648 -0.00119182 -0.000619631 0.000124504 -0.000285305 -1.35229e-05 
-8.98725e-05 0.000705189 -0.000811873 -6.74545e-05 -9.78052e-05 -5.94109e-05 -0.000762406 -0.00106783 -0.000740322 
7.41948e-05 -0.000384744 -4.33718e-05 9.99041e-05 -0.000595565 0.000255668 -0.000393484 -0.000709503 -0.000150642 
8.32369e-05 -0.000400298 8.76542e-05 0.000897898 -0.000261383 -0.000389221 2.11658e-05 3.74513e-06 0.000398015 
0.000284372 -0.000628858 0.000593162 -0.000124393 -0.000757929 -0.000265526 -4.20903e-05 -0.000434821 0.000901466 
-0.000290588 -0.00109047 -7.97735e-06 0.000278012 -0.000570613 -0.000139979 0.000331907 -0.000454752 0.000448812 
-1.45346e-05 -0.000312682 -0.000401459 0.000775667 -0.000549167 1.95114e-06 0.000279755 -0.000524883 -0.000139172 
0.000424544 -0.00174646 0.000636519 0.000292564 -0.000854094 0.000120648 0.000159991 -0.0012311 0.000249248 
0.000134433 -0.000837044 -0.000161188 -7.41622e-05 -0.000516032 0.000333399 0.000227447 -0.000732543 8.87989e-06 
6.78705e-05 -0.000436884 -0.000272976 1.48931e-05 -0.00106828 0.00043206 0.000262082 -0.00111286 0.000146017 
0.000844765 -0.000881928 0.000359878 0.000448141 -0.0014939 -0.00102352 -0.000177347 -0.000838753 -0.000270027 
-0.000287565 -0.00097298 0.000179918 -5.21129e-05 -0.000706708 -0.000399644 0.000265698 -0.000802124 0.000164211 
0.000442583 -0.000880345 -0.000125338 -0.000191785 -0.000451952 9.38151e-06 -3.75601e-05 -0.000856107 8.88204e-05 
0.000313547 -0.00052438 4.11513e-05 0.000281614 -0.0011577 -1.27732e-05 4.2997e-05 -0.0012516 -4.21056e-05 
0.00062463 -0.000861264 0.000322301 0.000668793 -0.000954057 0.000272652 0.000736419 -0.00052815 0.000262916 
0.000263854 -0.00081067 0.000528986 0.000416111 -0.00059761 -0.000145758 0.000228291 -0.000880618 -2.266e-07 
0.000681731 -0.00127536 0.000303618 0.000146886 -0.000940652 -7.63342e-05 0.000314565 -0.00112717 4.32673e-05 
-0.000462701 -0.000708635 -0.000217245 0.000320655 -0.00076392 -0.000244058 0.000285413 -0.00073477 1.30305e-05 
0.00013906 -0.00042632 -1.23369e-05 0.000174358 -0.000836605 0.000284316 -1.62057e-05 -0.000912581 0.000398052 
0.00114028 -0.00135628 -0.000122525 -0.000163969 -0.000706904 -0.000404114 0.000266313 -0.00101595 0.00062975 
-0.000133793 -0.00087853 -1.02331e-05 0.000550929 -0.0010096 0.000181333 0.000203274 -0.000752528 1.03902e-05 
-0.000127327 -0.000668091 0.000174701 0.000194998 -0.000647741 -7.43161e-06 0.000347949 -0.00107519 0.000230827 
-0.000163358 -0.000871987 -4.13982e-05 0.000505486 -0.000712906 -0.000146583 0.000307415 -0.000860358 0.000209185 
0.000792445 -0.000991282 -2.41157e-05 -0.000315548 -0.00150704 0.000720498 0.000388625 -0.000819685 -0.000461617 
0.000174265 -0.000788223 -3.44101e-06 6.78263e-05 -0.000916977 0.000144779 0.00062655 -0.000693585 0.00121518 
0.000156973 -0.000632428 1.2594e-05 0.000491664 -0.000697833 -1.41735e-05 0.000239051 -0.000696411 -7.29336e-05 
0.000674691 -0.000627362 -9.52697e-05 0.000283639 -0.000890429 -4.34552e-05 0.000256637 -0.00110215 0.000127859 
0.000128795 -0.00212051 0.00094904 -0.000115468 0.000387942 0.000127935 -3.63222e-05 0.000155478 -0.000468526 
0.000196766 -0.000300285 0.000332534 -0.000661173 -0.000900646 -0.000442119 -4.96704e-05 0.000308804 0.000512146 
-0.000138348 0.000287553 7.80603e-05 -0.000207707 0.000264244 0.000373729 -0.00156304 -0.000971917 0.000329149 
0.000914906 -7.94635e-05 -0.000129957 0.000284917 -0.000745388 -4.01342e-05 0.000483099 -0.000503845 2.57269e-07 
0.000167966 0.00078841 -0.000579985 0.000616792 -0.000578714 0.00135491 0.000779918 -0.000758644 0.000630798 
0.000548788 -0.00063891 -1.71978e-05 0.000275985 -0.000927397 -0.000242794 -5.80639e-05 -0.000662729 0.000108255 
0.000498208 -0.000501933 -0.000738256 0.000547372 -0.000730528 0.000341542 -0.000328487 -0.000243139 0.000610654 
-0.000408097 -0.000367124 0.000129973 -9.67302e-05 -0.00107669 -5.6478e-05 -4.23052e-05 -0.000954639 -0.000231616 
0.000274307 -0.000404927 -0.000183767 0.00070404 -0.00133338 0.000308165 0.000453455 -0.00113744 1.50363e-05 
0.000598053 -0.000757332 0.000672243 0.000688984 -0.00222054 0.000478746 -2.29418e-05 -0.00109623 0.000263982 
-0.0010321 0.00095848 -0.000305779 0.000125052 -0.000491327 -0.000317365 9.99711e-05 -0.00107014 -0.000105224 
0.000197344 -0.00121764 0.000248497 -0.000266412 -0.000826196 -1.66698e-05 0.000731972 -0.000762134 4.57095e-05 
-0.000376504 5.85928e-05 -2.49279e-05 0.000207772 -0.000902961 0.000216785 7.71514e-05 -0.000524496 0.000689523 
0.000201534 -0.000958608 -0.000284238 0.000188864 -0.000932209 0.000244807 0.000231034 -0.0011438 5.08093e-05 
-0.00020671 -0.00109448 4.17634e-05 3.55719e-05 -0.000882045 1.34154e-05 0.00013089 -0.000779833 -9.48456e-05 
0.000309882 -0.000715639 0.000124588 6.77927e-05 -0.000749373 0.00015534 0.000435098 -0.00107645 -0.000203504 
0.000417034 -0.00133751 0.000630501 0.000420506 -0.00100203 -0.000198053 0.000123908 -0.000769099 0.000553116 
0.00064028 -0.000917466 0.000689597 0.000374917 -0.000679618 -0.000174817 0.000216099 -0.000798666 -6.88443e-06 
0.000264757 -0.000501676 8.5361e-05 0.000447976 -0.001142 0.000152924 -1.27165e-05 -0.00092966 -1.88944e-05 
2.64202e-05 -0.00124793 -2.22618e-05 0.000321769 -0.00158988 -2.5547e-05 -4.27657e-05 -0.00116834 -6.57747e-05 
-0.000556151 -0.000951704 -0.000249948 -0.000162639 -0.00077573 0.000138228 0.000126147 -0.000758189 0.000100629 
0.000335138 -0.000791007 -4.05025e-05 0.000529954 -0.000762373 3.37697e-05 0.000274469 -0.000930742 -5.43586e-05 
-0.00011993 -0.00134285 -2.12123e-05 1.57939e-05 -0.000803418 1.31842e-05 0.000388743 -0.000883858 -4.86129e-05 
5.49032e-05 -0.000406939 -4.28128e-05 -3.90228e-05 -0.00124971 -0.000706709 -0.000241599 -0.000724254 6.8324e-05 
0.000273241 -0.000576418 -2.42453e-05 0.000563218 -0.00109828 -0.000310055 0.00045118 -0.00136398 -0.000296084 
0.000380119 -0.000866575 0.000144586 0.000413335 -0.000805422 -8.18334e-05 0.00036212 -0.00082772 -7.47521e-05 
6.08465e-05 -0.00119682 -1.70342e-05 -3.65754e-05 1.69868e-05 -0.000294987 1.68648e-05 -0.000216947 0.000830862 
0.000173905 -0.000162857 -0.000449095 9.06376e-05 0.000145159 -0.000262027 -0.000104812 0.000218418 0.00142497 
-0.000228146 -0.000500785 0.000205822 -0.000697335 -0.000325338 -0.000476877 -0.00068249 0.000303139 0.000473961 
0.000291434 -0.000902202 -0.000280947 -0.000270405 -0.000765187 -6.48899e-05 0.000204573 -0.000265747 3.03191e-05 
0.00270399 -0.0003074 4.70655e-06 -0.000816297 -0.000758231 0.000308902 -0.000552552 -0.000651364 -0.00112942 
0.000387812 0.000142567 0.000177478 1.18026e-05 -0.00114251 -0.000123347 1.83394e-06 -0.000358643 -9.98335e-05 
0.000525299 -0.00174344 0.000436709 0.0015066 7.63349e-05 0.000345778 0.000463003 -0.000344714 0.000508964 
0.000350904 -0.00011437 7.25266e-05 0.000203226 -0.000827301 0.000392902 -0.00062874 -0.000484041 -2.13061e-05 
0.000426326 -0.000291249 0.000315405 0.000293708 0.000285121 -3.87835e-05 0.00040327 -0.00157518 -0.000207207 
0.000326972 -0.00128856 -1.94188e-05 -0.000527423 -0.000142985 -2.53004e-07 -0.000209671 -0.000739663 -0.000592286 
-0.000284419 -0.000108118 0.000430476 0.000924658 -0.000143982 0.000352664 -0.00102559 -0.00155734 -0.000627352 
0.000671175 -0.00129026 0.000457281 0.000306134 -0.00143021 0.000769195 0.000807739 -0.00249481 -0.00115211 
1.32178e-05 -0.000990941 0.000283573 8.80728e-05 -0.000809898 0.000338207 0.000829587 -0.00150438 1.86314e-05 
3.95219e-05 -0.00144971 0.000544211 0.000399829 -0.000842255 0.000226152 0.000129242 -0.000760174 -5.70041e-05 
0.000117938 -0.000868529 0.000106506 -0.00044042 -0.00104358 -0.000654626 -5.67164e-05 -0.000288604 8.63406e-05 
0.000566047 -0.00252449 0.000370171 0.000422951 -0.00152391 -0.000369505 0.000833436 -0.00122998 -5.66989e-06 
-9.50104e-05 -0.000796664 0.000697912 0.000165784 -0.0012979 -9.9174e-05 -0.000146744 -0.00091632 5.6117e-05 
0.000822666 -0.000583488 0.000168939 0.000393381 -0.000673339 -3.20253e-05 0.000346863 -0.00125122 3.08624e-05 
0.000276456 -0.00111251 -4.36924e-05 0.000422386 -0.00127676 -5.635e-05 0.000857314 -0.00105286 -4.20028e-05 
3.19843e-06 -0.00121288 0.000284257 0.000310894 -0.00145483 -0.00123259 -0.000123469 -0.000648856 -4.12057e-05 
0.000350519 -0.000699252 -1.2112e-05 6.90139e-05 -0.00123039 -0.000756524 6.18035e-05 -0.00123333 -1.50535e-06 
7.48696e-05 -0.000914227 -0.000131843 0.000918542 -0.00130417 -0.000137395 0.000412011 -0.000628771 8.20569e-05 
0.000178415 -0.000791148 -0.000249948 0.000270564 -0.001035 9.19355e-05 0.000308074 -0.00118676 -0.000263477 
-6.8216e-05 -0.00115455 -0.000317848 8.1704e-05 -0.00116896 0.00011466 0.000501299 -0.00121684 8.27475e-06 
6.77593e-05 -0.00096657 -5.1666e-05 -0.000202709 -0.00151552 -0.000337538 -9.03834e-05 -0.00082148 -5.84955e-05 
0.000373988 -0.00103423 0.000246284 0.000730484 -0.000951985 0.000333048 5.23447e-05 -0.00110946 0.000154027 
0.000187197 -0.000555135 -3.75648e-05 0.00058387 -0.00132346 3.05267e-06 0.000468888 -0.00126314 0.000527386 
0.000405506 -0.000765714 -5.78888e-05 0.000483159 -0.000966802 5.86949e-05 0.000126511 -0.000509753 0.000465866 
9.06771e-05 -4.58787e-05 8.83316e-07 0.000103807 -0.000837458 0.000378292 5.57434e-05 -0.000103951 0.00147219 
-0.00034733 -0.00108467 0.00130191 0.000231077 -0.00043937 -0.000122195 0.000140317 -0.000456469 0.000893239 
0.000381003 -0.000286809 0.00105608 -0.000918995 -0.000817893 -6.70017e-05 -0.000176681 0.00162535 -0.000719674 
0.000358472 -0.000306603 0.00129249 -0.000772179 -0.000179969 -0.000686812 -0.000317448 -0.000747023 0.000163707 
-0.000291351 0.000535128 0.000496289 0.000335469 -0.000792435 6.83629e-05 7.7773e-05 -0.000507569 0.000145954 
0.000431398 -0.000216721 0.000413422 0.000391995 -6.35775e-05 6.83273e-05 0.000496907 -0.000357272 -1.10568e-05 
-0.000123109 -0.000161745 2.30584e-05 0.000832699 -0.000878257 4.81562e-05 0.000258462 -0.000687962 0.000377184 
0.000299629 -0.000167537 0.000151438 0.000300301 -0.000907222 0.000292185 -0.000101791 -0.000262572 0.000996417 
-0.000390581 0.000445194 -0.000393612 -0.00055686 -0.00141584 0.000978432 -0.000728404 -0.000281147 5.62561e-05 
-0.000413519 -0.00271659 0.00106346 0.000369904 -0.000216731 0.00141351 0.000293451 -0.00079607 0.00123736 
1.67932e-05 0.00042863 6.18017e-05 -0.000968443 -0.000233654 0.00032224 -0.000318729 -0.00102659 0.000412429 
0.00013696 3.21031e-06 -7.49876e-05 -0.000688106 -0.000237638 -4.07167e-07 -2.14737e-05 -0.000740991 1.25626e-05 
0.00041882 -0.000643264 0.000477804 0.000133215 -0.00129889 0.000252223 0.000436364 -0.000480215 0.000341166 
-0.000685787 -0.00193565 -9.05137e-05 -0.000301922 -0.000791019 6.82659e-05 -0.000912212 -0.000887626 -0.000102606 
-0.000317242 -0.000781281 0.000131581 -0.000836472 -0.000908353 -0.000292212 3.68172e-05 -0.000880203 -0.0002605 
-1.43517e-06 -0.000837563 -5.63283e-06 -0.000183681 -0.000465484 -0.000350075 0.000276945 -0.000763193 4.28602e-05 
0.000302811 -0.00111867 -0.000178157 -0.000111972 -0.000833234 3.35532e-05 6.57674e-07 -0.000504811 0.000266159 
-0.000543478 -0.00108525 3.35142e-06 0.000156057 -0.000523518 0.000154496 0.000479461 -0.000919634 0.000111143 
-0.000317577 -0.000626623 -0.000777223 0.000283033 -0.000969694 -0.000130222 0.000403542 -0.000830416 1.16454e-05 
0.00017091 -0.00118442 -1.96582e-05 -0.000607006 -0.000551233 0.000230813 0.000128679 -0.00132997 -0.00017655 
-0.000185669 -0.00112417 0.000222479 -0.000425034 -0.00114698 -1.67476e-05 8.10231e-05 -0.00117246 3.44407e-05 
0.000389561 -0.00102402 -0.000224909 0.000150848 -0.000805462 -1.37518e-05 0.000527803 -0.00121245 -3.80252e-05 
0.000286504 -0.00062749 -0.000237282 -0.000618785 -0.00167343 0.000522424 0.000526055 -0.00088825 -0.000292438 
0.000179429 -0.000564286 -3.19292e-05 3.93632e-05 -0.00103523 5.03557e-05 1.48423e-05 -0.00125532 -9.6046e-05 
0.000136801 -0.000841494 -2.33539e-05 0.000812697 -0.000955095 7.52547e-06 0.000208855 -0.00102057 -5.63202e-05 
0.000440465 -0.00124319 8.51826e-05 7.25751e-05 -0.000692984 -0.000161857 -0.00015149 -0.00140923 -0.000188463 
-9.8183e-05 -0.00110917 -6.49549e-07 0.00017499 -0.00120091 -0.000126524 0.000466172 -0.000865709 0.00028077 
0.000107622 -0.000941961 4.08191e-05 0.000134505 -0.000661968 -0.000340514 -4.95234e-05 -0.00087118 -5.97472e-05 
0.000786403 -0.00134189 0.000960219 0.000700086 -0.00138606 -0.000102248 0.000283471 -0.00114351 -9.8145e-05 
0.00042763 -0.00129923 -4.71359e-06 0.000352154 -0.00154562 0.000181076 0.00130488 -0.00150455 0.000735792 
-0.00125363 -0.000168351 0.000580186 -0.000251793 -0.000203466 0.000369398 -0.00121125 -0.000366645 -4.4624e-05 
0.000467493 0.000501952 0.0011566 -0.00121858 -5.24e-06 -0.00195463 -0.000167391 0.000117215 0.00039718 
-0.000189551 -0.000606751 0.000282998 -0.000446909 8.31566e-05 -0.000278683 0.000126367 -0.00106911 -0.00031814 
-0.000262443 -0.000986094 0.000122664 -0.000171207 0.000248024 0.000973687 0.00077262 9.08559e-05 -0.000457354 
-0.000275341 0.000107422 0.000673918 0.000445657 -0.000161355 -0.000108432 0.00130414 5.69839e-06 0.000241759 
-0.000786864 0.00028435 0.000838329 -0.000638983 -0.000400266 8.2803e-05 6.02902e-05 -0.00259628 -5.15132e-05 
-7.67214e-05 -0.000447307 0.000123159 -0.000165499 -0.000801827 0.000237788 0.000361237 -0.000783324 4.08707e-05 
-6.49078e-05 -0.000392362 -0.000872363 0.000279095 -0.000443967 1.81668e-05 0.00032768 -0.000668236 0.000210606 
0.000398428 -0.000112096 -7.80711e-05 4.47367e-06 -0.000753971 -0.000586714 -0.000763796 -0.000203895 -0.00028612 
-0.00041692 -0.000707595 0.000564957 0.000318635 -0.000365296 0.00125396 -0.000620928 -0.000679783 0.000502334 
-0.00143833 -0.000796882 -0.00119741 0.000195061 -0.000731178 0.000376355 -0.000114569 -0.000676011 -0.000193632 
0.00151356 -0.00314107 2.04661e-06 -0.000829372 -0.00162828 -3.58573e-05 -0.000570441 -0.000910987 0.000165634 
0.0015027 -0.000173297 0.000121642 0.000446305 0.0002278 0.000217925 -0.000562925 -0.00113477 -0.000946896 
0.00023404 -0.00131937 0.000419559 0.000640704 -0.001058 0.000638746 -0.000124378 -0.00101117 0.000480757 
-0.000316167 -0.00109965 -0.000158996 -0.000298609 -0.00152093 0.000260017 -0.000346898 -0.00105324 -0.000155959 
0.000441296 -0.000323024 -0.00111335 -0.000698239 -0.000118518 -0.000244819 0.000220017 -0.00078727 -0.000380213 
-0.000306363 -0.000476347 0.000390684 -0.000229344 -0.000377847 -0.000281243 0.000312482 -0.00103112 -0.000137488 
3.21379e-05 -0.000935978 -0.000161694 6.44805e-05 -0.000761279 -3.80792e-05 0.000115576 -0.000482197 4.74468e-05 
-6.33022e-05 -0.000987135 -0.000859956 -0.0012902 -0.000434501 -0.00134466 -0.000466918 -0.00122811 1.33742e-05 
0.000291466 -0.000642157 -0.000244461 0.000224487 -0.00104884 -8.58994e-05 -0.000313296 -0.000809468 0.000245024 
0.000108962 -0.000810731 -0.000107938 -2.46578e-05 -0.00066272 0.000377756 6.11888e-05 -0.000969014 -0.000209987 
0.000484547 -0.000744305 -6.89779e-05 0.000347473 -0.00131213 -2.67573e-05 0.000390343 -0.00132223 0.000155497 
0.000168111 -0.00119513 -6.51485e-06 -3.53874e-05 -0.000903738 5.04105e-05 0.000335556 -0.00131124 3.69634e-05 
0.000156287 -0.00116218 8.6989e-06 -8.59641e-05 -0.00105801 1.50561e-05 0.000547253 -0.00129272 0.000356245 
-0.000106733 -0.00105257 9.89476e-06 0.000476009 -0.000893875 -0.000187434 0.000267833 -0.00120897 -4.59635e-05 
-0.000160194 -0.00104415 5.19624e-05 -0.00019212 -0.000955684 -1.10733e-05 0.000569943 -0.000853058 -0.00017163 
0.0003634 0.000204786 0.00119678 -0.00319102 0.000532615 -0.000426326 -0.000871741 -4.61791e-05 0.000382446 
0.00117941 1.47977e-05 -0.000395593 -0.00108575 -0.00104725 -0.000992313 -5.43967e-05 0.000155192 -0.000501588 
0.000737359 -0.000109696 -0.0021274 -0.000552197 -6.70737e-05 -9.39246e-05 -0.00026017 0.000399538 -8.26935e-06 
8.0969e-05 7.22451e-05 5.80497e-07 -0.000165419 -0.000166174 -0.000317855 0.000487203 -0.000128971 -6.15849e-05 
0.000742706 3.57617e-05 5.54135e-05 0.000267972 -5.26894e-05 8.05789e-05 0.000274572 -0.000660849 -0.000670128 
-0.000500675 0.000508911 -0.000482432 -0.000400512 -0.000724336 -0.000110279 0.000282586 -0.000379435 -0.000405062 
0.000487216 -2.47892e-05 0.000210081 0.000405273 -0.000628667 -0.000332554 0.000255147 -0.000623456 -4.22601e-05 
0.000407844 -0.000124755 -2.87933e-05 0.00140942 0.000449757 -0.00035079 0.000396424 -0.000656571 0.000251377 
0.000634663 6.54827e-05 0.000106964 3.68002e-05 -0.000758628 -0.000197001 0.000176652 -0.000555604 -0.000250148 
0.000628831 -0.000427446 0.00100878 0.000631462 -0.000929071 -0.000375232 0.000185497 7.83323e-06 0.000118011 
-0.000459375 -0.000712672 -0.000513876 -0.000891316 -0.00128346 -0.000640936 -0.00095424 -0.00100787 -3.8636e-05 
-0.000373596 -7.68331e-05 -0.000111893 9.64818e-06 -0.000847008 -0.000164457 -0.000351126 5.71681e-05 0.000244756 
8.98811e-05 -0.00119856 -0.000431639 -0.000574569 -0.000848548 -0.000691896 0.000114772 -0.000833597 -4.17818e-05 
-0.000359185 -0.00113843 0.000226875 -2.12756e-05 -0.000724943 0.00281312 -0.000188176 -0.000679999 -0.000281328 
0.00102654 -0.000568145 0.00100092 6.39307e-05 -0.00103581 0.00118378 0.0011989 -0.000949685 0.000123709 
0.000819836 -0.00169531 -0.000819131 0.00020917 -0.000826673 -0.000928632 1.33377e-05 -0.00128389 -6.41892e-05 
0.000292394 -0.001013 -0.000168267 6.23798e-05 -0.000635164 0.000411033 -0.000562373 -0.000696898 0.000410054 
-6.32907e-05 -0.000819135 0.000577611 -0.000351113 -0.00127102 0.00072461 0.000105485 -0.00120369 0.000240272 
7.42766e-05 -0.00126792 0.000203133 -0.000196288 -0.000942167 -0.000297547 -0.000109271 -0.00135312 0.000402739 
-2.78671e-05 -0.00157916 0.000231005 5.37173e-05 -0.00123958 0.000861435 0.000155485 -0.00153254 8.47324e-05 
9.8199e-05 -0.000572922 -0.000214178 0.000210554 -0.00115729 -5.96832e-05 0.000182125 -0.000894735 3.20311e-05 
0.000567065 -0.00114245 -0.000168672 0.000128557 -0.00121274 4.67801e-05 0.000546244 -0.0011455 -0.000112424 