# vtk DataFile Version 4.1
vtk output
ASCII
DATASET UNSTRUCTURED_GRID
POINTS 1274 float
0.31828 -1.29546 -0.051977 0.326415 -1.29907 0.118261 0.366103 -1.294 0.286592 
0.195833 -1.3393 -0.190114 0.499157 -1.21856 0.0455215 0.541027 -1.24925 -0.00782984 
0.425051 -1.28783 0.317226 0.560833 -1.22108 0.456988 0.620067 -1.23364 0.031081 
0.709406 -1.24514 0.0404617 0.576135 -1.35753 0.186873 0.688999 -1.22104 0.418055 
0.898933 -1.18553 -0.055451 0.849422 -0.95391 0.0132011 0.781309 -1.24739 0.156474 
0.839502 -1.24323 0.267992 0.809448 -1.19077 0.219799 0.875225 -0.830031 0.0930603 
0.7524 -1.18372 -0.00953985 0.737406 -1.3469 0.0437763 0.816237 -1.13976 0.0174142 
0.78243 -1.26867 0.229012 0.759837 -1.14416 0.274801 0.745817 -1.21338 0.232917 
0.882536 -0.767764 0.00815016 0.711293 -1.2036 0.0963898 0.87567 -0.903996 0.287012 
0.925511 -0.677564 0.0345295 0.896022 -1.11315 0.0541125 0.899679 -0.977897 0.124186 
0.942492 -0.749318 0.0417094 0.790337 -1.14854 0.139248 0.821722 -1.10907 0.271228 
0.973457 -0.844667 0.0306498 1.00934 -1.06594 0.0181244 0.857125 -0.938282 0.185838 
0.875662 -1.19242 0.026817 0.861345 -1.01319 0.245843 0.805049 -1.1242 0.200027 
0.935883 -0.673618 0.115581 0.920401 -0.889 0.024394 0.92093 -1.01839 0.210206 
0.924405 -0.760938 0.195232 0.883073 -0.789839 0.265627 0.926683 -0.751283 0.119112 
0.988628 -0.890893 -0.0319443 0.939766 -0.702258 0.261624 0.928364 -0.688603 0.184475 
0.539212 -1.29589 -0.288251 0.167924 -1.3393 0.285637 0.16637 -1.37245 -0.0532971 
0.0370374 -1.32454 0.162835 0.311817 -1.34703 0.470087 0.275073 -1.34819 0.392397 
0.25731 -1.31455 0.172668 0.405344 -1.35247 0.284776 0.151476 -1.35325 -0.242315 
0.380197 -1.41001 0.0552429 0.70419 -1.28659 -0.164073 0.261384 -1.34728 -0.217499 
0.434676 -1.34465 -0.140204 0.397752 -1.33827 0.393905 0.448107 -1.29122 0.388482 
0.304643 -1.3515 0.205856 0.237124 -1.34701 0.0360915 0.597697 -1.19707 -0.102026 
0.456669 -1.35167 -0.00687346 0.62661 -1.34571 0.293814 0.481 -1.28863 -0.127161 
0.431393 -1.22402 0.241443 0.617893 -1.35576 0.00285547 0.520742 -1.23593 0.207615 
0.398302 -1.29722 0.0928652 0.390032 -1.28 0.430681 0.598993 -1.26553 -0.0751662 
0.645328 -1.4128 0.0993963 0.671857 -1.2249 -0.203871 0.30073 -1.28553 -0.183294 
0.626431 -1.36054 0.0652414 0.60492 -1.29527 0.00139804 0.597155 -1.2343 0.260985 
0.506778 -1.26405 0.430471 0.611113 -1.32442 0.456841 0.490484 -1.28282 0.255581 
0.553605 -1.27045 0.288631 0.505549 -1.33764 0.124535 0.672804 -1.28249 -0.0046079 
0.78474 -1.19004 -0.179412 0.985476 -1.2746 -0.243659 0.67026 -1.29874 0.165499 
0.589559 -1.26797 -0.187546 0.79805 -1.27149 0.334345 0.721923 -1.29437 0.211868 
0.674877 -1.17949 0.00453866 0.990457 -0.966773 0.0174786 0.791384 -1.232 0.00386492 
0.795558 -1.268 0.066582 0.926906 -1.29848 0.17433 0.729061 -1.2709 0.101801 
0.850937 -1.21578 0.351647 0.863767 -1.15978 0.397595 0.692149 -1.24425 0.245822 
0.880482 -1.35294 0.211689 0.791343 -1.15955 -0.0544704 0.815059 -1.20298 0.0746951 
0.704566 -1.24028 0.177178 0.869929 -1.16383 0.100114 0.874692 -1.24473 0.192504 
0.929933 -1.18112 0.326326 0.771652 -1.20649 0.304314 0.857511 -1.20289 0.461959 
0.965921 -1.11423 -0.101651 0.854515 -1.25885 0.0323484 0.710145 -1.18156 0.159719 
0.893724 -1.03004 0.331784 1.06462 -0.91751 0.0679691 0.872095 -1.1131 0.331753 
0.855775 -1.17003 0.274061 0.796138 -1.12146 0.361322 0.748626 -1.16592 0.0500175 
0.972208 -0.937131 0.216852 1.03647 -1.12037 -0.0208958 0.902253 -1.23683 0.0945991 
1.01489 -0.749761 0.0446816 0.946842 -1.04886 0.0833101 0.854125 -1.11879 0.155494 
1.011 -0.737543 0.265067 0.882255 -1.12064 0.236331 0.983667 -0.723423 0.182319 
0.927329 -0.779737 0.334018 1.0559 -0.883467 0.00419304 0.95599 -0.817871 0.138846 
0.988633 -0.895334 0.124222 0.95173 -0.824851 0.217198 0.999874 -0.94693 0.0790613 
0.930288 -0.922431 0.0854723 0.0902068 -1.41341 -0.251134 0.32958 -1.3549 -0.209633 
0.437209 -1.40919 -0.397629 0.0351729 -1.34837 0.32505 0.224162 -1.32356 0.481779 
0.103036 -1.40799 0.171855 0.21252 -1.34593 -0.388666 0.549402 -1.32996 -0.345483 
0.138488 -1.35198 -0.354554 0.502443 -1.32711 0.467716 0.278842 -1.28381 0.514682 
0.170038 -1.34909 0.368682 0.255359 -1.41179 0.29594 0.109801 -1.35765 -0.00685314 
0.311972 -1.34085 -0.130521 0.0920053 -1.35517 -0.288856 0.507951 -1.35324 0.310882 
0.359175 -1.40768 -0.026852 0.158585 -1.33426 0.222426 0.23639 -1.34895 0.105547 
0.254532 -1.29308 0.296896 0.387095 -1.28358 -0.274648 0.298292 -1.35176 0.065453 
0.455353 -1.31803 0.167678 0.161771 -1.27164 0.169496 0.567857 -1.29196 0.407445 
0.90225 -1.29005 0.53305 0.556372 -1.34738 0.43595 0.289739 -1.28526 0.21984 
0.349217 -1.35049 0.157282 0.364179 -1.35263 0.0922227 0.522058 -1.28919 -0.190073 
0.549775 -1.33247 -0.238311 0.562483 -1.29077 0.211721 0.57036 -1.22219 0.527675 
0.699661 -1.28996 0.420087 0.784227 -1.34007 0.471628 0.455851 -1.34973 0.23308 
0.69868 -1.41468 0.139118 0.633499 -1.22316 -0.294257 0.662895 -1.36297 0.193517 
0.857812 -1.2373 -0.290775 0.578253 -1.20358 -0.197531 0.902806 -1.2611 0.3115 
0.77705 -1.28944 0.429133 0.47128 -1.24013 -0.0376118 0.646892 -1.28508 0.261581 
0.752245 -1.25702 -0.112299 0.569976 -1.24543 0.154217 0.919201 -1.21591 0.248715 
1.00221 -1.35118 0.12608 0.623318 -1.26794 0.106549 0.980416 -1.12852 0.35237 
0.735768 -1.29182 0.280785 0.938156 -1.07279 0.0176271 0.845566 -1.16933 -0.165176 
0.801912 -1.20276 -0.105966 0.845231 -1.22159 -0.0462556 0.873132 -1.30008 -0.0114951 
0.839375 -1.30688 0.185963 0.773307 -1.31507 0.179923 0.930403 -1.14687 0.00552771 
1.00784 -1.05759 0.121831 0.976395 -1.11851 0.0503474 0.975591 -1.15529 -0.0437086 
0.853429 -1.26741 0.132496 1.00626 -1.18504 0.351132 1.02547 -0.956637 0.167595 
0.907712 -1.06273 0.268359 0.832478 -1.19536 0.153979 0.995191 -1.27226 0.21212 
0.897456 -1.17022 0.186629 1.08736 -1.27401 0.172877 0.940681 -1.22803 0.158591 
1.0482 -1.00403 0.0359109 0.97591 -1.05724 0.244186 0.892663 -1.05593 0.141908 
0.963924 -1.16732 0.223845 0.300145 -1.4153 -0.358456 0.207713 -1.38683 -0.328445 
0.0321967 -1.4135 -0.0273355 0.478398 -1.2773 0.531174 0.0339749 -1.41171 0.190637 
0.109253 -1.33502 -0.0925231 0.346745 -1.30774 -0.394462 0.0369056 -1.36687 0.0254295 
0.0474393 -1.32282 0.533198 0.361171 -1.40636 0.197205 0.158077 -1.41314 0.440511 
0.330719 -1.33212 0.532447 0.0921483 -1.3879 0.238871 0.355128 -1.35022 -0.270632 
0.244303 -1.36418 -0.125561 0.264837 -1.41429 -0.201008 0.134499 -1.34095 0.155076 
0.348372 -1.29462 0.483205 0.09153 -1.35123 -0.202255 1.00217 -1.41419 0.470481 
0.243611 -1.40735 0.205342 0.242884 -1.34309 -0.0594206 0.425135 -1.3554 -0.271453 
0.174718 -1.34037 0.0124664 0.596994 -1.41374 0.210712 0.482756 -1.4131 0.140989 
0.497655 -1.28228 0.332752 0.29234 -1.35457 0.325603 0.205731 -1.35733 0.166053 
0.33578 -1.35186 0.276755 0.818148 -1.41266 -0.216945 0.2107 -1.37789 0.262901 
0.392355 -1.3433 -0.0396519 0.187738 -1.32063 -0.108236 0.41352 -1.41526 -0.134769 
0.310175 -1.36555 -0.0638563 0.509988 -1.33172 0.387156 0.553324 -1.25051 0.358801 
0.323007 -1.3531 -8.81864e-05 0.400753 -1.34461 0.0324447 0.822881 -1.31501 -0.165045 
0.409723 -1.35728 0.151305 0.370241 -1.35735 -0.162359 0.385236 -1.28456 0.161146 
0.422103 -1.28768 0.239113 0.386748 -1.33803 0.213953 0.61885 -1.21483 0.352982 
0.504719 -1.27543 0.149123 0.776558 -1.25843 -0.187601 1.04836 -1.36532 -0.130055 
0.359452 -1.30062 0.00272154 0.491713 -1.29827 -0.00829847 0.867389 -1.41476 -0.0964015 
0.676932 -1.35279 0.0193547 0.68795 -1.34421 0.25357 0.557287 -1.34305 0.259708 
0.614945 -1.26908 0.314718 1.09582 -1.36016 0.371543 0.692187 -1.35764 -0.0496855 
1.07929 -1.13423 -0.0847578 0.799155 -1.27541 -0.0537528 0.906591 -1.25264 -0.0466018 
0.746514 -1.35011 -0.0189308 0.832258 -1.327 0.0375336 0.916515 -1.35365 -0.0273271 
1.02235 -1.16612 0.409429 0.739408 -1.33882 0.112939 0.855773 -1.38085 0.282347 
0.721413 -1.23585 -0.03372 0.95528 -1.28864 0.0791848 1.0517 -1.25084 0.0539009 
0.971521 -1.23626 0.0290708 0.88428 -1.30204 0.0756438 0.814829 -1.31558 0.125961 
0.758975 -1.29208 0.00838775 1.00208 -1.27309 0.138438 0.923014 -1.33997 0.11608 
1.01911 -0.806867 0.225108 0.985282 -1.22942 -0.0411442 1.03781 -1.3238 0.187155 
0.946757 -1.29516 0.000204591 0.945832 -1.17386 0.0848225 0.929015 -1.11592 0.396054 
0.0341678 -1.38694 -0.22199 0.0319437 -1.4142 -0.162271 0.0354928 -1.41021 0.468508 
0.0749732 -1.41422 0.304627 0.0892217 -1.37897 0.528372 0.104875 -1.41553 0.473651 
0.0767673 -1.40892 -0.3383 0.168808 -1.40195 -0.394954 0.389468 -1.3626 -0.403687 
0.0336244 -1.41208 -0.284948 0.0626102 -1.41294 0.0709227 0.279307 -1.4091 0.467562 
0.0351466 -1.41055 0.357883 0.242329 -1.4087 0.366336 0.153334 -1.41182 0.531969 
0.329075 -1.35437 -0.336723 0.142566 -1.41429 -0.330571 0.15098 -1.4147 -0.268737 
0.646733 -1.41013 -0.317243 0.433251 -1.41294 -0.236127 0.127196 -1.41367 0.075923 
0.12532 -1.35987 0.416411 0.400572 -1.33266 0.529315 0.110015 -1.34607 0.325253 
0.511308 -1.40602 0.400094 0.188537 -1.38176 0.0675842 0.323766 -1.40789 -0.165256 
0.316532 -1.41419 0.0960336 0.227349 -1.41107 -0.0780651 0.385569 -1.34479 0.459702 
0.337236 -1.32279 0.411952 0.304973 -1.40986 0.246957 0.727794 -1.34865 0.526347 
0.224909 -1.35106 0.323533 0.44369 -1.35081 0.345535 0.482326 -1.34758 -0.223779 
0.414961 -1.35922 -0.205871 0.0720591 -1.35086 0.102491 0.469472 -1.40706 -0.174896 
0.269769 -1.35396 0.26486 0.291759 -1.35188 0.136368 0.448815 -1.34527 0.432549 
0.375524 -1.33615 -0.104013 0.481189 -1.41026 0.0434896 0.683342 -1.27663 -0.350422 
0.594473 -1.29431 -0.26145 0.590533 -1.41474 0.0603431 0.559922 -1.28551 0.485022 
0.657011 -1.41098 0.239567 0.58422 -1.35527 -0.289345 0.475054 -1.41396 0.208877 
0.70988 -1.35261 0.38695 1.04505 -1.2878 -0.204407 0.516664 -1.28184 -0.0678076 
0.455075 -1.34572 -0.0717471 0.558133 -1.33653 0.0122501 0.49834 -1.34024 0.0470817 
0.569297 -1.31845 0.340845 0.607599 -1.2825 0.535691 0.940452 -1.23469 0.531403 
[...]
POINT_DATA 1274
FIELD FieldData 10
VELOCITY 3 1274 double
-0.43936061091 0.076903607363 -0.020197659676 -0.31083550837 0.009121457017 -0.2249240894 -0.1592926626 -0.018839487461 -0.029805849143 
-0.28075473404 0.063340475214 -0.00032022077364 -1.4261212534 -0.61662840435 -0.095593322984 -0.89070186977 0.4368045736 -0.18686370427 
-0.21286266102 0.019250535551 0.060473019238 -0.48852385528 0.14482633211 0.27887124109 -1.0955721174 0.12686220125 -0.023194371108 
-0.66441173981 -0.22475419497 -0.28901419155 -0.32925259889 0.0021606362628 0.061671408068 -0.38263109654 0.12333999878 0.44031873193 
-0.12623954507 -1.1260136563 -0.41984690022 0.35041661959 -4.6089227883 -0.085161457284 -0.88581665852 -0.39362050511 -0.15071949252 
-0.29410219754 -0.7488619913 0.0069352761273 -0.25260463067 -0.84607958517 -0.29608727792 0.38552951706 -4.4164111533 0.16993752057 
-1.265787372 -0.93044078029 -0.64366229826 -0.37736223636 0.041617644183 -0.21396795611 -0.90483500496 -1.567725097 -0.7980139505 
-0.52186315765 -0.50204984399 -0.12464511701 -1.1679328452 -3.7729834864 -0.63628108499 -0.33747966435 -0.54565718894 -0.050680884295 
0.22795777704 -4.4571772723 -0.23648277033 -1.3068825634 -0.033096372065 -0.14587871904 -0.0040553289588 -4.787591983 0.093725266548 
0.92264820556 -4.3093141085 0.00353693486 -0.25557636601 -1.2170418178 -0.41425696395 0.61687241789 -2.3786202316 -0.84801860774 
-0.09411177067 -4.3321977002 -0.12967752944 -1.6013364805 -1.8255290368 -0.7104508181 -1.8297621905 -1.1266745992 0.77825366355 
0.17764489043 -4.8063032631 -0.48764394494 -0.07965887693 -1.812852 0.54372640765 0.16848262079 -4.2459588391 0.39010983819 
-0.46265495717 -1.3582407545 -0.42351779272 -1.0416177058 -2.8978798791 -0.059025347949 -1.5748930502 -0.94913090538 -0.61116265377 
1.0213521618 -4.3550000983 0.073719594358 0.11862898838 -4.892973815 -0.20989534437 0.20895054356 -3.6179135368 -0.35503719932 
0.40136924977 -4.5101419997 0.093057820788 0.33472347506 -4.5676014677 -0.0044041049303 0.75950425939 -4.4362630583 -0.0023063022027 
0.23186666686 -4.7517421142 -0.3488692616 0.91157916429 -4.4526888576 0.045456537294 0.38567406894 -4.143603437 0.27054534446 
-0.32401483519 0.087072690377 -0.08640240121 -0.0064898478367 0.14397337248 -0.0020701858793 -0.21966468646 0.061967531952 -0.12789135727 
-4.4805440641e-05 -0.0039538683533 0.015326808869 -0.12667402544 -0.029687143077 -0.030035566557 -0.19830866241 0.11265373903 -0.079315781193 
-0.15526172367 0.053921292052 -0.050078362436 -0.16566034028 0.007236336647 0.060066408918 -0.097714060171 0.078493264153 -0.17264292668 
-0.18162149768 5.5850634822e-05 0.019598603354 -0.83841891078 0.41926243137 -0.45224561729 -0.27851968543 0.044413293945 -0.015745714473 
-0.21384471264 0.15324388918 -0.14524275225 -0.22152108543 -0.028320595354 0.038410025417 -0.30335779875 0.057256364389 0.054963224722 
-0.40553766646 -0.061654434543 -0.01432255444 -0.09980310666 0.050534390834 -0.21846030465 -1.0518258569 0.043622037407 -0.48010757689 
-0.35876955821 -0.058054421806 -0.13169448968 -0.22683015816 -0.031005342046 0.33484576205 -0.2944227658 0.16822820738 -0.2765304187 
-0.39723876599 0.038345106313 0.045730856087 -0.48716092886 0.09192248831 -0.15483704376 -0.74753594325 -0.29431710256 -0.44507315131 
-0.53064348379 0.194165781 -0.16196993362 -0.22356496266 0.046309781121 0.16828415106 -0.51302020995 0.233693881 0.012495398051 
-0.26247951645 0.0018614020389 -0.070709706566 -0.53354384715 0.31997599248 -0.24801311626 -0.72408501876 -0.34316871465 -0.44093502009 
-0.71279938675 -0.13285930058 -0.10892030554 -0.85438001558 -0.033555916821 -0.30867443121 -1.0539785737 0.025074199449 -0.44786252358 
-0.49224951846 0.098676605004 0.16656763332 -0.23186576939 -0.059873925254 0.079396124656 -0.47849141514 -0.2305461275 0.043314120732 
-0.42591797577 -0.38224987742 0.042401916759 -0.60791357439 -0.18783941248 0.067253452952 -0.8669657079 -0.46664557821 -0.21975375282 
-1.0869024966 0.19595075794 -0.75006279705 -0.13553723444 -0.05202246847 -0.38538837538 -0.50863127983 0.164233775 0.029573746077 
-0.47092878466 -0.21456583216 -0.64399283289 -0.01409610042 -0.35360113507 0.19883924804 -0.57169764342 -0.52728780598 0.21106365759 
-1.0239877795 -0.9420824718 -0.33851392718 -0.26651294563 -3.9957934746 -0.49926825683 -0.35656393302 0.042019026814 -0.2334966337 
-0.79266546294 -0.51987228532 0.17562058511 0.0096360121708 -1.5446487265 -0.10633572365 -0.98143986429 0.055813382535 -0.054334399954 
-0.90429543122 -0.42083744684 0.3055410985 -0.62994680865 -1.5926503617 1.9148798671 -0.71086097696 -0.0014462328922 -0.18158131043 
-0.73034064617 -0.0025329976869 0.13234791371 -1.0476486851 -0.48026103632 -0.16988243051 -0.84889191661 -0.43720916241 -0.30674032728 
-0.34596294528 0.033594077538 0.26594003647 -0.15326042344 -1.2532834175 -0.34908116444 -0.021523880628 -0.81116454026 -0.22098642459 
-1.7554841049 -1.2697197709 1.0087226572 -1.2650744881 -3.5722332494 0.67544167272 -0.77454722478 0.12369892461 0.94493939632 
-0.61156886493 -3.0355930074 -1.5883762944 -0.93483037296 -1.175022113 0.036129112438 -1.2328617108 0.1624505951 0.25720479136 
-0.20190275899 -3.1133254143 1.6681209077 0.23081010609 -4.8653730878 -0.039734206159 -0.89213354167 -1.7840602974 1.2277743009 
-0.58750636264 -0.59259946212 0.04638964935 -1.4571853678 -2.2073218015 0.9246941362 -1.3125342556 -1.3558479284 -0.53769771681 
0.082146799968 -5.068391816 0.0099549422773 0.22913133686 -1.4800486107 -0.17774453381 -0.20237827272 -0.47101118613 0.018526862341 
-0.086068838017 -4.3679184986 -0.094603331437 0.086681411073 -4.736671004 0.137803347 -1.0169957503 -1.7329368999 -0.23425860412 
0.8688673741 -4.5761717383 0.051289149926 -0.71144129166 -2.2480393121 0.053504274492 0.36035603114 -4.244183927 -0.020206931452 
0.21568215999 -4.3093755048 0.30938790247 0.1878695717 -4.7823444743 -0.18869081418 0.30582843096 -4.6722416913 -0.018435475638 
0.15609512366 -4.9821764377 -0.10651244965 0.14847463549 -4.7047262594 -0.079307221364 0.47929680533 -4.9335887706 -0.090385667419 
0.36998352641 -4.8536995003 -0.20317448633 -0.081136038362 5.3090890262e-05 0.15462471373 -0.26530806491 0.02234816869 -0.073120342831 
-0.024740970847 -0.00036234475403 -0.0079604038105 0.00099973699092 -0.043438286184 -0.082592085653 -0.35070514236 -0.050975787276 0.071968156592 
-0.037677078268 0.00093692937545 -0.10312560363 -0.086181646175 0.081329977661 -0.132029685 -0.18122526343 -0.050692147957 -0.04973001863 
-0.24859086625 -0.06376999489 -0.078198575791 -0.19290460211 -0.03142177032 -0.022349286301 -0.2568156209 0.053385312682 0.046614440122 
-0.058241057391 0.044096002278 0.033023504557 -0.14579749405 0.00051784982248 0.029993269925 0.0003248407979 -0.0066345722911 -0.13113064571 
-0.21254327298 0.074626325195 -0.111775562 -0.2307725375 -0.24365846723 -0.22853612903 -0.18117408539 0.05248624108 0.02675109229 
-0.10068956416 0.00031829642629 -0.046868595169 -0.1746927276 -0.017118440309 -0.002776828274 -0.1969472447 0.14968830833 -0.030724237986 
-0.26350187288 0.0096290834255 -0.17754325979 -0.4280862812 -0.13586460499 -0.086983266709 -0.15348115251 0.017483895402 -0.10892644386 
-0.26688469382 0.061452779201 0.012213836337 -0.24218973172 0.03688466679 0.15544002688 -0.41758608982 0.18423471509 0.25453527645 
-0.047085332132 0.025748507409 -0.0075024636372 -0.18224419747 -0.032779573628 -0.07168610999 -0.36908769896 -0.031232543269 0.15776188736 
-0.26883058765 0.020253924159 0.11937347545 -0.20042945461 -0.011646599935 0.0066502836431 -0.5910047427 0.12153305214 -0.34418162034 
-0.17494268727 0.029345939376 -0.035871044041 -0.47680943747 -0.082873594485 -0.034403958866 -0.3502647766 0.031723264379 -0.0021994863646 
-0.40975706914 0.059276655335 -0.04450087959 -0.1251625569 -0.076143150158 -0.059188991672 -0.36828982095 0.16700165447 0.15236340978 
-0.29849800165 -1.3273464128e-08 -0.21267553837 0.097103551047 0.40047265716 -0.43190088976 -0.74717957502 0.15993696575 0.052172055533 
0.24641903238 0.22283096516 -0.048674352001 -1.5125790728 -0.12892494536 -0.84827300299 -0.16421424769 0.128275262 0.18686255482 
-0.12451394162 -0.11105526939 0.20039097966 -0.26877342696 0.072235989775 -0.52740454641 -0.60359548203 0.073517389886 0.32210343148 
-0.5884275513 0.23989457322 -0.55501423999 -0.84804602468 -0.13014401406 -0.17345802462 -0.062113164178 -0.81590575777 -0.46676066581 
0.057956084744 -1.0532781 -0.27289823875 -0.94176384035 -0.21841867656 -0.23707022332 -0.12029753471 -1.1190805134 0.68285743144 
-0.49949293681 0.13186843703 0.18070257496 -0.086298787781 -2.4337877135 -1.2101301692 -0.67945496351 -0.7435715835 -1.259507983 
-0.39823603506 0.051002574685 -0.42380304481 -0.0095672789452 -0.3924366731 -0.35472960451 -0.45051946263 -0.53674606591 -0.37539990241 
-0.33913754474 -0.87451885328 -0.37046079553 -0.59864876369 -0.43227504129 -0.18289227846 -0.9419274041 -1.9389700877 -0.39614374955 
-0.069650287732 -4.6628735302 0.41723327765 -0.5104657659 -2.4506372605 0.67033972865 -0.90166790232 -1.831443013 -0.45642993638 
-0.54223367556 -0.42492551342 -0.19982101653 0.77416548197 -0.72969512553 0.57977513545 0.41548860719 -5.0306549061 -0.067006800774 
-0.41106300877 -2.2305627407 0.47546012074 -0.40756746924 -0.89737415123 -0.33576617611 -0.13164709084 -1.1178513967 0.063509761437 
0.39645462924 -0.98527913818 -0.83392853148 0.44166859244 -0.93852854106 -0.20732067927 -0.054343865928 -1.4885574859 -0.0087202308976 
0.84368403002 -2.0582002967 0.020555468852 0.14419682951 -5.0003990489 0.37726902563 -0.12421016957 -2.2969917433 -0.55322885823 
0.73386735 -1.5201641712 -0.43613900627 -0.027240438064 -0.00053973912086 0.0091998989002 -0.070954315047 0.11600076431 0.0067064983434 
0.0013606845509 0.0021728656078 -0.032528385685 -0.25483757105 0.023738128092 -0.0088241543098 -0.0024270098203 -0.0011047717712 0.0076927479995 
-0.20607418337 0.18127521945 -0.042981497713 -0.020925188201 0.0014994618167 0.00524195714 -0.00032273277547 0.035162871079 -0.038815233126 
-0.41404882509 -0.16191180062 -5.5976109551e-06 -0.14710527989 -0.028667539537 0.021844768036 -0.079024765821 -0.00088103385947 0.096577981329 
-0.1589057479 -0.13213021692 0.0044987832659 -0.003014880238 -0.084302972257 -0.071792209643 -0.23634448186 -0.047135267347 -0.069610597889 
-0.23027969815 0.14133674799 -0.037650741009 -0.19305861687 -0.0027414507718 0.019314899245 -0.070572880465 0.019625696681 -0.083068858566 
-0.41049857091 -0.056891627289 -0.031290940797 -0.060226891594 0.15025205046 -0.11788562073 0.036689575901 0.003645388048 0.13554930862 
-0.060485356967 -0.00039943906345 -0.0020710489514 -0.21044835009 0.15346483893 -0.0415030407 -0.2059742743 -0.032756450018 -0.093808245791 
0.068744634589 0.064236605018 -0.16548198731 -0.13690262236 0.0035065283357 -0.0024877015848 -0.13967412275 -0.0058918454688 -0.016921350201 
-0.3234828338 -0.042812277483 0.020442293284 -0.095288188133 -0.0064781945578 -0.051179597595 -0.093982867524 -0.028329450572 -0.0034147361235 
-0.15666391996 0.015983475665 -0.10438607619 -0.20843506315 0.026950870878 -0.092280333096 -0.1494377986 -0.012566438952 0.013164080872 
-0.084301788907 -0.02684723677 -0.14209351098 -0.33198224623 -0.34886763464 -0.56973924046 -0.13365425254 2.0107234626e-05 -0.092130021759 
-0.14336148276 0.05845898059 -0.11520538364 -0.44059973362 0.0015109993397 0.066928392086 -0.40203028106 0.046007007168 0.079758382659 
-0.22456252396 -0.061463541282 -0.22279874132 -0.28921988419 0.016056853905 -0.050718295217 -0.38988795811 -0.064659398094 -0.27827734358 
-0.28474563805 -0.0023610506217 0.12566467715 -0.20661688931 0.067000474544 -0.11073267614 -0.37742201129 -0.099312225199 -0.092912009724 
-0.5400342151 0.099834230262 0.12343264746 -0.45065763999 0.052253975671 0.093251533925 -0.5305540258 0.33608707137 0.23767437196 
-0.76466137768 -0.37328927794 0.1622415737 -0.43168916934 -0.013662581882 -0.18003091342 -0.13673248536 -0.052256341918 -0.24480272092 
-0.59456788995 -0.1726643723 0.072677694464 -0.51173600663 0.038975573244 -0.18933541034 -0.47784384485 -0.02044136303 -0.41219822314 
-0.49137306765 -0.62921577231 0.029721850187 -0.41906625214 -0.086668202473 0.1072850066 -0.1038239893 -0.0099646074931 0.086743950034 
-0.47739356109 0.24441472264 0.34848083411 0.26922260302 0.073041340814 0.075997697265 -0.32924662999 0.004481919335 -0.21348460241 
0.65497132445 -1.5748781756 -1.5665523014 -0.43521566323 0.013742058883 -0.71812883592 -0.2906493179 -0.72631301049 -0.49625010272 
-0.29171098222 0.041087470083 -0.28563227718 -0.45088837423 -0.36264826108 -0.23825990236 -0.098779947075 -0.21658978357 -0.53083041234 
0.61707305546 -0.1109563031 0.42567520976 -0.60281491908 0.1073881992 -0.040272636868 -0.036792715761 -0.69542331652 -0.081300773329 
-1.0168722344 -0.87369636534 -0.75369400636 -0.13257249999 -0.53910371247 0.13829089525 0.26451728992 -0.72129823526 -0.45430798384 
-0.64658247521 -1.0958949093 -0.28565900752 -0.4255822132 -0.4287986579 -0.47181095033 -0.7140446148 -0.27706326595 -0.4369834851 
-0.50116531031 0.10671350622 -0.27604269156 0.48639601846 -1.7805230949 0.11353059692 0.060029343701 -1.7149064305 -0.052997842593 
-0.0096274222614 -4.4940000156 0.054239742154 -0.50531539417 -0.22598570608 -0.44859614921 0.088273577219 -0.68512923291 -0.46221875376 
-0.2949144545 -1.172964162 -0.44121903173 0.26608283497 -0.6551745031 -0.35697458813 -0.12739659281 -0.63883499463 0.61053752702 
0.004817185278 -0.065185664725 0.050411558114 0.019908510922 -4.5939618986e-07 0.089582394288 0.0010483306178 0.00017624715232 0.00047306532425 
0.005792454747 -0.00073977506125 0.0050626751227 -0.040100395629 0.083933695115 -0.0034759080228 -0.10928090178 -0.00014220765929 0.037408471919 
-0.019490315138 -0.040146105143 0.006303932553 -0.017189375102 0.013257546811 -0.00015941528588 -0.023213272971 0.0012717009119 -0.00012425294576 
-0.00098674467103 0.00090762312727 0.021241208112 -0.087473856983 0.00010350764803 -0.024952836148 -0.18833938947 -0.00020226005128 0.032075460724 
-0.0010628488168 -0.00012840804217 -0.0012398185673 -0.062614996717 0.00021217454466 0.0068001292833 -0.08323434207 -4.926796737e-05 -0.00012819332575 
-0.15323466349 -0.081221193971 -0.10071366585 -0.017047608724 -0.00059611308482 -0.0025546524178 -0.12121706557 -0.00081435436754 0.01306797703 
-0.020206452522 0.0013213731393 -0.016578287572 -0.086022581741 0.002450178007 -0.036051784118 -0.080638767642 -0.00012599391575 -0.13635168118 
-0.083974646475 0.06885624846 0.012009145477 -0.12563510134 0.00268423015 -0.003521108774 -0.011159619735 0.0086126060768 -0.033415359421 
-0.088796314122 0.016697357185 0.0012895781061 -0.062612016454 0.099745501693 -0.10585585384 -0.15030682948 0.0010687574386 -0.058169497313 
-0.096877923467 7.682585613e-13 -0.071576352657 -0.18262418821 7.7576258673e-05 -0.16031959562 -0.3054680075 -0.0091552961632 0.031363168852 
-0.21626566761 0.10133987791 -0.010931930359 -0.10911586068 -0.0001406949102 0.067831081383 -0.099171124315 -0.017638885928 0.036967228103 
-0.094010917684 0.0020969109722 -0.0043098705968 -0.16521085569 0.03579062734 0.068670172324 -0.15019877818 -0.049359851388 0.04450193943 
-0.18791507784 -0.026604036699 -0.090589664866 -0.017786677552 -0.032978517542 0.017992120991 -0.10613632748 0.0072521001774 -0.02496983933 
-0.1696752348 0.0029021743388 -0.060403951641 -0.20595283588 -0.0063746885427 -0.034972942916 -0.26647591466 0.048305522392 0.044380728639 
-0.19550955828 0.027539249415 -0.10827712019 -0.22739582443 0.031404487158 -0.033630875817 -0.44001850799 0.14950437417 -0.1185098169 
-0.32158501944 0.10857115395 -0.092296002825 0.040898114165 -3.1917085804e-12 -0.083447528579 -0.22618755616 0.024160125395 -0.026911333419 
-0.1316128439 -0.0018380064956 0.0032126079178 -0.16960832221 0.040972427848 -0.013008245339 -0.17591565265 0.0003678780038 0.029993837956 
-0.2823704726 -0.10135875658 0.07518402987 0.2025822062 -0.35944964529 -1.0210856059 -0.41019734069 0.020838451173 -0.18963863863 
-0.3337237192 0.088116745513 -0.11500827296 -0.70001038278 -0.12904175169 -0.089115264754 -0.67505514258 0.15203215746 -0.017408248432 
-0.27576431661 -0.042353075422 0.34092504678 -0.21186024515 0.046427937721 -0.00066532289789 0.12195857032 -0.058092851304 0.069039496255 
0.25877249905 -0.012496661178 0.49982497412 -0.26640989219 -0.26327912508 0.032824288978 -0.88869385949 -0.26490178973 -0.41558706982 
-0.56110307995 0.1127179165 -0.17750310019 -0.32979061298 0.27877671722 -0.30565286514 -0.62306409467 -0.0078071953941 0.4196834447 
-0.62879066955 0.17732817273 -0.0017000383808 -0.1566468122 0.031676955817 -0.054379213923 -0.48084593216 0.14139926641 -0.096347534346 
-0.22499157117 -0.027957057931 0.11689653718 -0.36490216437 0.036766576749 -0.13033966468 -0.84207433332 -0.56000871139 -0.16783093961 
-0.87742752911 -0.65003557578 -0.87624239814 0.13516460784 0.01409500272 -0.88883844249 0.59257471135 0.072062523277 0.01609713498 
0.052700359457 -0.58085021791 -0.53773103762 -0.56524804125 -0.50283645472 -0.1674315777 -0.58792442123 -0.19528242301 -0.13330252026 
-0.17546113899 -0.38403372873 0.53137461454 0.098744704587 -1.0516425261 -0.011267321233 -0.40961552466 -0.0027760670266 0.020128208895 
-0.88835307599 -0.1352634063 -0.44038053893 -0.72944709699 -0.50507578057 0.86662738312 0.38137137515 0.0091095345964 0.5876904974 
-0.16908192231 0.031631622824 -0.4359720023 -0.1236341522 -0.038526659055 -0.55321389613 -0.35736771933 -0.83156316588 -0.10292268038 
-0.11693659493 -4.7773290983 0.37486807481 -0.24822681362 -0.24708887454 -0.1570011455 -0.50653616111 -1.1754754311 0.29701176387 
0.00045193613251 0.00066989290022 -0.035970228076 -0.0020007520158 -0.079266941075 -0.013211024575 -0.033991273712 -0.0026749779713 0.0017599312152 
-0.00058408037089 0.0016620300457 0.017149895654 -0.12469279422 3.8436733228e-05 0.00071123496683 -0.11259059518 -0.0014061113732 -0.01332749893 
-0.00058510533111 -0.00016956379124 0.023272232555 -0.020385256459 -0.0059366143545 0.00022576924561 -0.080352900366 -2.1930876194e-12 0.0039729820395 
-0.026139346684 -0.00040583397869 0.0049139775607 0.00010802059062 -7.8591332371e-05 0.0091695800806 -0.12546398782 0.00056831194507 -0.0020333499929 
-0.026781371987 -0.0026562840643 -0.11644367191 0.010626494548 0.00011870766066 0.0010285362944 -0.12375896713 0.00031061550853 -0.019937139697 
0.0030041460894 0.0025445684002 0.00089405064507 -0.14622416742 0.07833064335 1.0698728858e-05 -0.13013302286 0.0019489316838 0.029300863861 
0.0044424349499 -0.11058156958 -0.28545727915 -0.18036995966 0.025624937714 0.032374153962 -0.0386300733 0.0045337326301 0.11077760488 
-0.070474852093 -0.0010277192588 -0.057672333666 -0.0056782158559 -0.00083442769209 -0.029352555564 -0.12861768674 -0.00052874436781 -5.6282860607e-05 
-0.064958030024 0.10426584 0.042777712398 -0.038499841542 0.0097080584467 -0.15594968798 -0.24656476547 -0.10417886761 0.040440727258 
-0.13157919883 0.0048274356265 0.021788123335 -0.12486739168 0.098276697819 0.0021116547977 -0.2080617002 0.032904106888 6.8133931803e-05 
-0.24889016582 0.129040875 -0.024081418816 -0.069021464943 0.0039359616798 -0.0074485560576 -0.031519166722 0.0007101013116 -0.13132330246 
-0.14828066216 -0.013765533873 -0.016751068746 -0.24594845385 0.12258824229 -0.21234138195 -0.14960288077 -0.0031953256597 -0.012592199396 
-0.20667005821 4.2044650413e-05 0.014893998459 -0.16179727052 0.050241702674 -0.015710460592 -0.10335300409 0.024185702335 -0.062500876004 
-0.1052541876 -0.11812925329 -0.15008819852 -0.17172929902 -1.5835081753e-10 -0.028189031682 -0.1058319894 -0.050166256395 -0.0475481987 
0.096210549177 0.00010151898149 -0.041931330637 -0.30056054227 0.12718485916 -0.22963778184 -0.19020617708 0.00020979351642 -0.068729020582 
0.012566183237 -0.053242564515 -0.0071645896636 -0.2681990197 0.054648704377 -0.10559877492 -0.28826290784 0.22479337522 0.21558435105 