# vtk DataFile Version 4.1
vtk output
ASCII
DATASET UNSTRUCTURED_GRID
POINTS 1274 float
0.27369 -1.29445 -0.0533036 0.273694 -1.30219 0.095889 0.279382 -1.29495 0.317542 
0.157824 -1.31608 -0.211048 0.298437 -1.29136 0.178153 0.41151 -1.23452 -0.0670086 
0.381366 -1.2911 0.322108 0.469987 -1.23549 0.492976 0.512117 -1.24366 -0.00810198 
0.637034 -1.25337 -0.00566221 0.538848 -1.34671 0.187565 0.641179 -1.2227 0.434234 
0.852403 -1.27261 -0.151206 0.84344 -1.25445 -0.082943 0.6577 -1.2964 0.158069 
0.755445 -1.27584 0.265853 0.696156 -1.27025 0.218724 0.793758 -1.20796 -0.0449008 
0.637054 -1.20762 -0.0560842 0.672377 -1.34643 0.00779798 0.715275 -1.19077 -0.0822215 
0.690727 -1.30817 0.278193 0.391011 -1.23456 0.281883 0.615185 -1.27213 0.224815 
0.912787 -1.23667 -0.076419 0.301078 -1.2505 0.128409 0.657511 -1.20792 0.363644 
0.81401 -1.195 -0.113177 0.921209 -1.31395 -0.0002705 0.82277 -1.22936 0.0380433 
0.971658 -1.20859 -0.014969 0.656932 -1.22807 0.0466104 0.55751 -1.21904 0.378502 
1.0824 -1.22291 -0.287877 1.03367 -1.24154 -0.141534 0.503997 -1.22141 0.280693 
0.789823 -1.27887 -0.0126486 0.634887 -1.2739 0.285654 0.405201 -1.25075 0.137793 
0.951962 -1.20278 0.0595092 0.851365 -1.22688 -0.208433 0.798084 -1.23313 0.160132 
0.838115 -1.21214 0.108803 0.748363 -1.22103 0.215954 0.903324 -1.24345 -0.00519961 
0.985338 -1.23831 -0.236452 0.891737 -1.25244 0.291597 0.88656 -1.21795 0.230289 
0.451927 -1.2994 -0.306761 0.167804 -1.33259 0.280777 0.145299 -1.35891 -0.0654376 
0.0370367 -1.33487 0.173707 0.286312 -1.34238 0.471589 0.255817 -1.33814 0.385005 
0.239828 -1.31339 0.165003 0.379577 -1.35341 0.285098 0.153401 -1.34835 -0.272834 
0.359459 -1.41001 0.0556614 0.611746 -1.28942 -0.213191 0.217768 -1.35346 -0.222044 
0.399493 -1.34728 -0.151281 0.371552 -1.35524 0.404675 0.399096 -1.29305 0.394596 
0.278086 -1.34831 0.208929 0.213374 -1.33843 0.00551533 0.485059 -1.26625 -0.18732 
0.413171 -1.3608 -0.0237335 0.583405 -1.34512 0.299894 0.433167 -1.28264 -0.142613 
0.304095 -1.28408 0.243127 0.552655 -1.36023 -0.0193778 0.376613 -1.27371 0.194406 
0.331405 -1.2984 0.0617514 0.330473 -1.2619 0.44549 0.508645 -1.2275 -0.0834438 
0.623471 -1.4128 0.0996429 0.543824 -1.25123 -0.240644 0.212465 -1.28188 -0.175311 
0.568437 -1.35597 0.041594 0.541551 -1.30127 -0.0340314 0.327926 -1.26215 0.297835 
0.451269 -1.28847 0.450286 0.579764 -1.33506 0.46995 0.446518 -1.28097 0.264236 
0.511097 -1.29957 0.29097 0.451905 -1.36114 0.112115 0.615832 -1.30374 -0.0477972 
0.64385 -1.22741 -0.214024 0.972716 -1.28518 -0.284487 0.570429 -1.28642 0.172237 
0.474836 -1.28629 -0.250682 0.764568 -1.28925 0.343909 0.645488 -1.32734 0.220662 
0.577107 -1.23887 -0.0538868 0.999442 -1.26671 -0.0443485 0.741682 -1.25475 -0.0610696 
0.684795 -1.29042 0.0494198 0.876555 -1.3492 0.162095 0.603179 -1.25473 0.0796961 
0.780247 -1.23222 0.388036 0.790683 -1.24156 0.464748 0.545541 -1.26311 0.23278 
0.825997 -1.35952 0.207712 0.621999 -1.22522 -0.144814 0.687867 -1.23265 -0.0331886 
0.553126 -1.24086 0.123724 0.732402 -1.23673 0.0211795 0.80844 -1.30048 0.177948 
0.828872 -1.25053 0.340806 0.681254 -1.26712 0.329778 0.809193 -1.22666 0.532537 
0.91264 -1.24745 -0.369632 0.769559 -1.30999 0.0489947 0.437616 -1.25605 0.192623 
0.723891 -1.22675 0.535002 1.16356 -1.22121 0.0116997 0.628914 -1.26639 0.530083 
0.734235 -1.2257 0.317622 0.704888 -1.24508 0.415677 0.578898 -1.24348 0.0153135 
0.95874 -1.29286 0.219346 1.10576 -1.23871 -0.167194 0.838917 -1.30531 0.0441785 
0.976851 -1.2261 -0.0923125 0.908224 -1.28983 0.0618078 0.616257 -1.23688 0.147409 
1.32158 -1.19723 0.526057 0.738716 -1.25647 0.160969 0.940073 -1.22537 0.193961 
0.952172 -1.20839 0.423029 1.21199 -1.26359 -0.182895 0.905066 -1.23203 0.0977089 
1.045 -1.22595 -0.00804521 0.863874 -1.23346 0.171972 1.10042 -1.25833 -0.0323673 
0.963325 -1.26305 0.0318298 0.086671 -1.41341 -0.246649 0.285896 -1.36067 -0.213136 
0.430069 -1.40919 -0.397639 0.0351688 -1.35955 0.315535 0.213227 -1.32118 0.482541 
0.0966311 -1.40799 0.156628 0.216654 -1.34412 -0.402017 0.500367 -1.31852 -0.348262 
0.0870849 -1.35983 -0.381518 0.493663 -1.34761 0.45968 0.251015 -1.27901 0.529061 
0.147183 -1.35436 0.37948 0.241031 -1.41179 0.297764 0.0966357 -1.35822 -0.0126115 
0.276952 -1.32011 -0.156544 0.0800869 -1.35881 -0.288996 0.472123 -1.35384 0.309859 
0.348606 -1.40768 -0.0292438 0.129599 -1.34344 0.230523 0.2132 -1.33464 0.0980909 
0.21957 -1.29566 0.291474 0.32048 -1.29145 -0.294923 0.270936 -1.34801 0.0404518 
0.422437 -1.31829 0.166086 0.0825107 -1.29267 0.215253 0.515644 -1.30065 0.418953 
0.893172 -1.30021 0.533049 0.546992 -1.35571 0.420375 0.24076 -1.29491 0.228705 
0.318133 -1.35522 0.157009 0.318834 -1.35427 0.0926503 0.367053 -1.28849 -0.232331 
0.520268 -1.33292 -0.24136 0.492576 -1.2928 0.20409 0.548556 -1.22587 0.527673 
0.64454 -1.28729 0.408216 0.776817 -1.34076 0.462177 0.423677 -1.34425 0.228905 
0.676838 -1.41468 0.136502 0.589108 -1.22264 -0.399225 0.601115 -1.35844 0.188472 
0.854232 -1.22705 -0.31625 0.390879 -1.29518 -0.298427 0.82842 -1.29976 0.283791 
0.759071 -1.28958 0.419808 0.332711 -1.28437 -0.172021 0.571297 -1.27628 0.288698 
0.670131 -1.27267 -0.166664 0.490129 -1.24966 0.145399 0.879508 -1.29188 0.214276 
0.970345 -1.38756 0.0887125 0.535627 -1.28034 0.0564721 0.995094 -1.25529 0.443832 
0.64874 -1.33019 0.341092 0.941782 -1.29608 -0.0631075 0.671623 -1.21075 -0.283732 
0.725657 -1.22905 -0.145186 0.791282 -1.30418 -0.0807047 0.820909 -1.34984 -0.0454659 
0.739904 -1.31835 0.178011 0.702721 -1.35508 0.138496 0.859663 -1.2991 -0.0262945 
1.00889 -1.24926 0.0866112 1.06212 -1.2749 0.0385992 0.912287 -1.25103 -0.140114 
0.786903 -1.28881 0.114914 1.10913 -1.28494 0.393933 1.0043 -1.24678 0.188989 
0.818598 -1.24335 0.228997 0.69846 -1.25827 0.110984 0.931493 -1.3615 0.216355 
0.857249 -1.28509 0.11891 1.19582 -1.36099 0.117216 0.947561 -1.35373 0.143719 
1.1238 -1.25904 -0.0980719 1.02646 -1.26086 0.275342 0.763091 -1.22443 0.0951114 
0.993032 -1.35419 0.196421 0.297586 -1.4153 -0.358859 0.199591 -1.37216 -0.32722 
0.0322034 -1.4135 -0.0345781 0.441348 -1.28069 0.531353 0.0339859 -1.41171 0.191296 
0.0880281 -1.32438 -0.107012 0.340216 -1.30686 -0.394474 0.0369042 -1.36212 0.0211663 
0.0326481 -1.34525 0.488264 0.346445 -1.40639 0.198493 0.151724 -1.41314 0.444411 
0.323936 -1.34691 0.532516 0.0880958 -1.39516 0.227332 0.326587 -1.35887 -0.265525 
0.218195 -1.35075 -0.129051 0.24815 -1.41429 -0.201466 0.12486 -1.33759 0.153001 
0.311923 -1.29153 0.502004 0.0914938 -1.33724 -0.219815 1.0055 -1.41418 0.472961 
0.234113 -1.40735 0.202617 0.218275 -1.34166 -0.0602586 0.403432 -1.35845 -0.282324 
0.150956 -1.32354 -0.00109412 0.582364 -1.41374 0.215383 0.469017 -1.4131 0.144614 
0.452333 -1.28906 0.341061 0.273888 -1.35695 0.322756 0.19431 -1.36247 0.157591 
0.311528 -1.34571 0.270428 0.802509 -1.4127 -0.22646 0.190238 -1.3881 0.264684 
0.356592 -1.34237 -0.0620885 0.161689 -1.30576 -0.120797 0.394478 -1.41526 -0.141386 
0.293229 -1.35427 -0.0873609 0.465434 -1.33984 0.39603 0.479167 -1.25491 0.3949 
0.297878 -1.3599 -0.0221421 0.358476 -1.34945 0.0162774 0.800866 -1.29758 -0.212194 
0.378954 -1.36167 0.15518 0.336237 -1.34529 -0.179584 0.352602 -1.29995 0.131945 
0.377616 -1.29363 0.256162 0.347395 -1.33269 0.211656 0.526008 -1.2358 0.436703 
0.447909 -1.29513 0.108873 0.734853 -1.25925 -0.210365 1.05806 -1.36701 -0.147661 
0.310251 -1.30423 0.00398045 0.443741 -1.30484 -0.0198064 0.836492 -1.41477 -0.14067 
0.613577 -1.36231 -0.0114271 0.650014 -1.36312 0.275165 0.501533 -1.35074 0.24442 
0.518353 -1.26071 0.345302 1.14794 -1.36796 0.380254 0.628733 -1.3689 -0.07464 
1.12051 -1.28378 -0.219235 0.725229 -1.29679 -0.116531 0.853621 -1.32464 -0.107671 
0.686966 -1.36359 -0.051475 0.746327 -1.3416 -0.00649277 0.897877 -1.35459 -0.0555597 
1.05003 -1.2361 0.467544 0.635947 -1.31483 0.0923112 0.841046 -1.41501 0.254042 
0.652731 -1.25802 -0.0945428 0.89557 -1.35379 0.0898174 1.09819 -1.31894 -0.00104668 
1.01076 -1.31113 0.00852862 0.813342 -1.37072 0.0466114 0.75346 -1.33957 0.10197 
0.695633 -1.2983 -0.0352456 1.05048 -1.34979 0.154953 0.854848 -1.41217 0.0913671 
1.18051 -1.23152 0.410085 0.99459 -1.29003 -0.10606 1.09757 -1.40835 0.172957 
0.963294 -1.37555 -0.0366969 0.971528 -1.31628 0.0849861 0.859296 -1.20949 0.45544 
0.0341698 -1.37735 -0.227687 0.0314946 -1.41421 -0.173408 0.0354917 -1.41021 0.467888 
0.0724213 -1.41424 0.307776 0.08389 -1.3714 0.528368 0.0998771 -1.41553 0.479645 
0.0770004 -1.41064 -0.339153 0.166907 -1.39476 -0.39495 0.384437 -1.36053 -0.403686 
0.0336249 -1.41208 -0.28591 0.0513421 -1.41294 0.0665726 0.264787 -1.4091 0.470981 
0.0355894 -1.41055 0.363937 0.240188 -1.4087 0.370428 0.142679 -1.41182 0.527154 
0.301288 -1.35416 -0.332205 0.14293 -1.41429 -0.331468 0.145812 -1.41471 -0.269129 
0.640468 -1.41014 -0.320196 0.424302 -1.41293 -0.237058 0.11584 -1.41367 0.060468 
0.0974842 -1.34392 0.422097 0.392076 -1.33181 0.529311 0.109644 -1.35188 0.315581 
0.500959 -1.4062 0.400706 0.175031 -1.37139 0.0533883 0.310253 -1.40789 -0.168353 
0.292568 -1.41419 0.0897313 0.209822 -1.40946 -0.0930583 0.355196 -1.34888 0.469582 
0.316717 -1.32227 0.415514 0.291467 -1.40986 0.249617 0.713843 -1.35034 0.518651 
0.207163 -1.3518 0.332024 0.41098 -1.35009 0.34966 0.453614 -1.34853 -0.22419 
0.383521 -1.35579 -0.218956 0.0654719 -1.35875 0.109043 0.45534 -1.40706 -0.17302 
0.24321 -1.3527 0.2673 0.263619 -1.35817 0.128571 0.420533 -1.35382 0.450603 
0.33672 -1.32094 -0.122276 0.457283 -1.41043 0.0499097 0.621463 -1.28609 -0.382248 
0.523343 -1.2921 -0.290441 0.569907 -1.41475 0.06494 0.518792 -1.2859 0.489602 
0.648229 -1.41098 0.225396 0.550338 -1.35132 -0.296694 0.456618 -1.41397 0.209134 
0.680593 -1.36145 0.39477 1.07272 -1.29136 -0.26989 0.462935 -1.28389 -0.0797421 
0.427927 -1.3414 -0.0859955 0.501908 -1.32634 0.0149007 0.43832 -1.34184 0.0377576 
0.529311 -1.33122 0.355557 0.571463 -1.28974 0.535691 0.942796 -1.25481 0.531367 
[...]
POINT_DATA 1274
FIELD FieldData 10
VELOCITY 3 1274 double
1.2615486222e-05 -9.4771259401e-06 -0.00012369386552 -0.00026903568299 1.7353451967e-05 6.808634752e-05 -0.00017317119977 -5.1985080931e-05 0.00014123601394 
-2.9232100534e-05 -5.7543672553e-05 0.00012061969731 -0.00012132006852 -3.3158393656e-05 5.5107802451e-05 -0.00017016213528 7.9994939445e-05 0.00016630524376 
-0.00024010709079 -4.5243086226e-05 -2.7030267357e-05 -0.00030628633183 6.7122849651e-06 -0.00015764030765 1.1751383661e-06 8.3078687435e-05 -0.00018358578574 
5.4421736922e-05 -0.00011983583605 -0.00010838952691 -0.00014790091557 5.0895944815e-05 -4.3814459803e-06 -0.00022348773649 -0.00029330392289 -0.0001202949964 
-4.5095645e-06 -0.00011780540597 6.2280022028e-05 -0.00012982414683 4.9685318684e-06 -1.7001466673e-05 -9.5644691949e-05 -2.1203790654e-05 5.7389670157e-05 
-9.2953244473e-07 5.9098404071e-05 -1.2731038236e-05 -2.0680408229e-05 6.6966408249e-05 -4.9356422454e-05 -0.00031841654394 -0.00012368224314 -3.9200017442e-05 
-7.4599386991e-05 -0.00020908293557 -0.0002330730334 -3.4143021055e-05 -2.534876827e-05 2.1937542112e-05 0.00027905135148 -0.00016220531724 -0.00011028733627 
8.2229288847e-05 -7.9554181631e-05 -0.00022226498872 2.1083058271e-05 -2.3010358667e-05 6.9906600813e-05 -0.00013097781284 -3.9157630546e-05 3.6375138215e-05 
-0.0001298721993 -9.5861530769e-05 0.00022918335763 -0.00018881882062 -7.8457954169e-06 6.6713177552e-05 -5.1539722874e-05 -0.00011539613517 -1.5129781632e-05 
-0.00029495401414 -9.3952597386e-05 -4.4505286989e-05 -0.00012250023678 -3.0415997274e-05 9.3338361336e-05 -0.00036655003157 -6.80472271e-05 -4.5555522925e-05 
-0.00016934478142 -6.1498401625e-05 0.0002386097869 -2.0715156447e-05 3.4077062588e-05 -0.00020016184391 -0.00025204933483 -0.00016815529496 4.6166127133e-06 
4.4317613768e-05 -0.00020602083577 -0.0001026254218 0.00019827594144 7.2941206869e-05 -4.0330940765e-05 3.6410320404e-05 -0.00017302296649 1.2130858144e-05 
-0.00013283216653 -0.00015861892548 -0.00021655446613 -5.5661052424e-05 -0.00020685473345 1.6356526821e-05 -7.7609600164e-05 -0.0001072149435 -0.00012513104326 
0.00044670588025 -0.00026758392041 0.00029592773956 3.1635350619e-06 -0.00025668932875 5.2493876733e-05 -7.3158667742e-05 4.7646612516e-05 -4.1621221746e-07 
-0.00018649609741 -1.7005825284e-05 -0.00010329057977 0.00011897413578 -2.6177771025e-05 -0.00016830443527 -0.00019253249568 1.4734057154e-05 0.00033153510652 
0.00019416207181 -0.0001908698884 0.00010912290046 -5.7148302106e-05 -0.00014599052562 6.6674971267e-05 -0.00042965657432 -3.6380942839e-05 0.00018850995906 
-0.00019152072412 3.5415894585e-06 1.5590272059e-06 -6.6648046241e-05 -0.00010424121331 -1.5832051656e-06 6.4293211692e-05 -0.0001015535038 -5.958605858e-06 
1.7883089318e-05 -0.00032645613443 0.0001007436908 -0.00018764874616 -6.289901544e-05 -9.3688467991e-05 -0.00016641641816 0.00013111130315 3.5564174283e-05 
-0.00010609865762 -6.2633760351e-05 0.00016091252786 -0.00010675226339 -2.6869791704e-05 -9.4808970474e-05 0.00010846700655 -4.1540003358e-06 5.6768251304e-05 
4.3103957408e-05 3.9901538428e-06 5.6967607484e-05 -0.00012096055674 -5.6420535986e-06 5.3795845114e-05 -5.397211318e-05 4.4146322273e-06 0.00013506515108 
-0.00013124918888 2.1159274311e-05 0.00026609136285 -0.00017753226502 -0.00010932969677 -4.7039669925e-05 -0.00030577309241 -3.6770173419e-05 -7.4551872163e-06 
-2.7738268491e-06 -5.139486154e-05 0.00014764542307 -0.00012801202731 -0.00024671271131 0.00015315204426 -0.00010701220657 -0.0001371836359 4.6300188311e-05 
-0.00027026171803 3.1989965235e-05 4.8190770642e-05 -4.6802814176e-05 5.5001364342e-05 9.1735495284e-05 -0.00018372140415 7.4291153135e-05 5.3035635652e-07 
-0.00011600884596 -4.091677481e-05 4.4838015109e-05 -0.0001816544957 6.4842142455e-05 0.00016924079997 -0.00011418352809 -4.316763613e-05 -7.6236816757e-05 
1.0106901493e-05 -8.645042719e-05 -8.0328672876e-05 -0.00019155115954 8.1965759389e-05 -2.1231672877e-05 -2.9093653573e-05 -7.1452645176e-05 -5.679606339e-05 
-0.00011466121893 -2.103469521e-06 0.00012109870252 -0.00022303981776 -0.00015576490741 9.5015076001e-05 2.7794705539e-05 -0.00010342408347 1.8381865738e-05 
3.2098539408e-05 4.8056643449e-05 0.00019093459828 0.00027977286487 9.4723921284e-05 0.00011676084333 -0.00026840487462 4.413824978e-05 0.00010425586051 
-0.00025009139436 -8.6708454051e-05 -8.413214235e-06 -0.00026348542875 -9.6668337204e-05 0.00012747706485 -1.2106272286e-05 -0.00010941184937 5.7334377387e-05 
-6.7010380972e-06 -0.00020091957444 -9.1620065281e-05 -0.00016231700173 -7.0662433446e-05 -0.00013080945738 0.00018205273139 -0.00017801375955 -0.00012096995557 
0.00017133743869 -0.00015663404262 -1.2899255105e-05 9.0541070327e-05 -0.00015319862425 0.00015105077806 6.1834396666e-05 -0.00016563490813 -9.9991623362e-05 
-0.00013124624633 5.4933585301e-05 1.3249163022e-05 -7.4907797385e-05 -4.6960623382e-06 -2.9981051336e-05 -0.00011254921573 -2.9370486755e-06 -3.3172092098e-05 
3.8330609586e-06 -0.00030259651273 -0.00019479872317 -6.4163502183e-05 4.5456380848e-05 0.00016252776857 -5.8445458202e-05 -0.00033670854869 -0.00030342781185 
-2.8063235043e-05 3.4424252519e-05 -4.5684244161e-05 0.00020742658464 -6.1484524957e-05 0.00017147818281 1.8980617116e-05 -2.1270555698e-05 -0.00014410293481 
-8.4088191425e-05 1.7913111341e-05 -1.585873758e-05 -0.00028945169656 4.908979774e-05 4.6038655008e-05 9.4143732465e-06 -1.5220895051e-05 -0.00017151063393 
-0.00023811873362 0.00012227828538 7.3760391031e-05 -6.304092918e-05 -0.00029234933285 -0.00010937217807 -6.1020715636e-05 -9.0149344573e-05 -0.00022812959248 
-3.1820610024e-05 -0.0002728537769 -0.00015812906626 -7.4529495375e-05 -3.4141231365e-07 -0.00020265617884 -3.6183588249e-05 -1.7805333315e-05 -0.00021897180574 
-1.5096608375e-05 -0.0002369172147 9.7060905111e-05 -2.2618448456e-05 -1.4397376714e-05 -0.00022273144229 -0.00012243862538 -1.4741634254e-05 8.8652007241e-06 
7.1471300779e-05 -0.00010823534782 9.1152096442e-05 -0.00011603691384 -0.00030746591187 6.1654161623e-05 -0.00013224325371 -0.00010018249025 -5.890763133e-05 
1.6480757646e-05 1.2021596557e-05 9.655664055e-06 7.7708877625e-05 -0.00016936687237 -0.00018968851231 -5.4877432986e-05 -9.1192653873e-05 -8.5017459476e-05 
-1.0192059719e-06 2.8717274721e-05 -2.4360274055e-05 -6.2261778241e-05 0.00011965563442 1.1121826794e-05 -2.0381207673e-05 -0.00027435202191 -0.00017867322483 
0.0001050454684 -0.00039743980441 -0.00023452011919 7.2332546765e-05 9.2364010987e-05 -0.00016052012934 -0.00024574338825 -5.0962211161e-05 -4.2167463713e-05 
-0.000182797235 -0.00010248990381 0.0001144356467 -0.00010023131538 -7.4463803763e-06 7.3315205675e-05 -0.00016388252583 -1.3707490838e-05 -0.0001223417941 
-1.9016662872e-06 -5.7497515951e-05 -4.0551119224e-05 -2.2460680128e-05 -6.9039633278e-05 -0.00011074335319 -0.00032684460813 -0.00022573031334 0.00036175316829 
-0.00039080823715 -0.00017684917328 6.088225514e-05 0.00012203005707 -0.00019788314759 -0.00021892719704 -0.00012856616646 8.4163011992e-05 -8.6086782327e-05 
-0.00014608403134 -0.00016675806616 -8.0975837101e-05 5.3215205137e-05 -4.6871540722e-05 -8.7264859304e-06 -0.00028677598824 -0.00015788312924 -0.00029767690271 
-7.9884639557e-05 -0.00026365427517 5.0127643091e-05 -2.6426190978e-05 -1.4889250249e-05 -6.8191121346e-06 8.133348655e-06 4.3958859176e-05 -5.4791906126e-05 
-2.8188873011e-05 -3.9632291592e-06 -5.9677165169e-06 -7.8948890435e-06 6.0913980067e-05 0.00020642102725 -4.0135859681e-05 -6.1403815378e-05 -4.3941380886e-05 
-9.4163363401e-05 2.1919040482e-06 -0.00014237100909 4.630308675e-05 2.6845229624e-05 -1.0610312696e-05 -0.00012080862655 -1.8900110042e-05 -2.4041251441e-05 
-2.4729106605e-05 -1.0690026193e-05 -3.4285648172e-05 -6.6309462169e-05 -2.3007180841e-05 2.6085195131e-05 -5.6992042862e-05 -4.326289103e-05 -8.5538835805e-06 
0.00012052100111 -3.3069287548e-06 6.0790202823e-05 -3.0277316692e-05 2.2324452005e-05 2.0766091821e-05 -5.5173087865e-05 -5.310184173e-05 -8.9736310291e-05 
-7.485797142e-06 -0.00015210646617 8.8367107847e-05 -3.0532002978e-05 2.6797926482e-05 -5.5347225213e-05 -0.00022589842619 1.271878272e-05 -8.6251847782e-05 
-7.5964700804e-05 0.00017929376203 0.0001353526629 -9.5133851757e-05 1.1441253108e-05 -1.9220920024e-05 -8.0538904238e-05 -7.3849730978e-05 -9.1260133546e-05 
-0.00014785007315 -2.0937349978e-05 5.1177538685e-05 -0.00017617474594 -9.6608037164e-06 0.00010910985505 4.6879972381e-05 -4.9010476321e-05 3.1773940806e-05 
-8.2603372508e-05 5.742802203e-05 -5.9138982066e-05 -0.00013481576954 -4.815618907e-05 -2.9724069689e-06 0.00025490833908 -9.0945194984e-05 -2.1314917929e-05 
-0.00010255580642 5.131206808e-06 0.00013835615261 6.01527577e-05 -9.4170895088e-05 -4.2588646342e-05 -0.00014783148954 -1.8559733972e-05 4.131221167e-05 
-7.4057382867e-05 3.4842646413e-05 2.4811348713e-05 -0.00013918429579 3.033257169e-05 0.0001456626894 -0.00010724997427 -5.9939578899e-05 6.273533445e-05 
0.00011656419625 -0.00028531597935 0.00014522780768 -7.7238330906e-05 -2.2670040943e-06 3.4908945448e-05 -8.989429558e-06 -5.928578326e-05 -2.4880364219e-06 
-9.2473765817e-05 3.8106386676e-05 -3.1154323026e-05 -0.00021646985276 0.00014039071651 0.00025259783695 -0.00028055913288 5.7787694643e-05 -8.1430099197e-05 
-0.00012788069269 4.0391427414e-06 4.1626561469e-05 0.0084266519133 -0.0096251602336 -0.050820293283 -0.00012438514653 3.761364301e-05 5.5702658169e-06 
4.4288253661e-05 -0.00019553296564 0.00021166263743 -0.00021519720594 1.6022613505e-05 6.3997626668e-05 -8.3371490692e-05 -8.6344384611e-05 5.2746633877e-05 
-0.00010098187148 4.7108346734e-05 -0.00011240110593 -0.00016491903649 8.5252985108e-05 7.8484151405e-05 -9.7054328052e-05 -3.4190337235e-05 -8.3915650898e-05 
-4.8324749135e-05 -0.00029606024664 1.4144413783e-05 -1.5256893758e-05 -7.5415929197e-05 2.9813819578e-05 8.5136831896e-05 6.3421512033e-05 7.5895519428e-05 
-7.3768962932e-05 0.00018849479424 5.0594004463e-05 -2.8527028231e-05 -2.4990325128e-05 4.3632500453e-05 0.00032684923219 -0.00028992567265 -0.00015384374773 
2.2146540214e-05 7.9992233336e-06 -2.0510515865e-06 3.9774928131e-05 -6.236114613e-05 0.0001419047129 -0.001222270116 0.00010688269162 0.00023532536345 
-9.2663986441e-05 -0.0001491262175 -0.00017062712015 -8.3998389821e-05 -2.6471725326e-05 -1.8319379329e-05 9.4585746812e-05 -1.2685980918e-05 -0.00020012595409 
-6.6532770391e-05 -6.0594044911e-05 -0.00016931845884 -0.00026896827639 -8.9646031082e-05 7.0588156956e-05 -1.7367399596e-05 -1.0825841966e-05 0.0001407049974 
0.0001386419913 -3.2682599879e-06 -0.00022106804188 5.3930104853e-05 -0.00012222045924 -7.9757569001e-05 -3.6932563938e-05 -4.6475781327e-05 0.00023126666836 
-5.9067976248e-05 -0.00011944545834 -0.00016145827975 -0.00026429043762 -0.00063372680182 -0.00056996670434 -4.9854671551e-05 -5.2304285536e-05 7.4792066804e-05 
5.1112910009e-05 -0.00013053985826 -1.3243600771e-05 -0.00018388827019 1.5257192207e-05 -1.5606029563e-06 -0.00029135830306 -0.0002571699506 -0.00040223949042 
2.8138018985e-05 4.7377431058e-05 -0.00013457767751 -6.1315611412e-05 -5.8856784342e-05 0.00010466200507 0.0001905909321 0.00013173079418 0.00016322124686 
2.1176575968e-05 -0.00012522553057 -0.0002039611262 -3.2952527377e-05 -0.00015099540168 7.3629225542e-05 -0.00015458279205 -0.00015794135232 -0.00015070028212 
-0.00019248938573 -0.00069498271786 -0.00026067162094 0.00012355521327 0.00021690836802 -0.00018200919978 2.3180242131e-05 3.4655090169e-05 7.8107750736e-06 
1.2926897936e-05 -1.9962130848e-05 -6.2534457877e-05 -7.9689092606e-05 -2.9770863918e-06 -2.1806607977e-05 1.3915931408e-05 -0.00025653015421 0.00017688867333 
6.6013525466e-05 -0.00017165420176 -7.515130452e-05 2.8436009293e-06 -3.8321193067e-05 6.5783364191e-06 1.9306091269e-05 2.0275402431e-05 4.0252127629e-05 
-7.6190133731e-06 4.9072622808e-05 -0.0001750575785 -0.00010654208574 -3.1054433848e-05 9.9424196709e-06 -0.00029311142002 0.00019768546545 -0.00017981911469 
-9.991189755e-05 -2.9279816217e-05 2.5101467926e-05 -3.0320866048e-05 4.7036338366e-05 1.1502469959e-05 -7.3206521261e-05 -1.3446896517e-05 7.1277238692e-05 
-5.897483249e-05 -0.00013978690243 0.00024586031551 -0.00061799765895 7.3975387024e-12 0.00080473983805 -0.00016642041098 3.0583191992e-05 4.7577241981e-05 
-6.5210338978e-05 -5.4472335991e-05 -5.2842336612e-05 -7.0578106686e-05 0.00019214527381 -6.7841230218e-05 -0.00013070351279 2.22851148e-06 1.8193624291e-05 
-0.00014228339678 1.0799429956e-05 -7.30934677e-05 4.8611492592e-05 -0.00013652669882 0.00017365276377 5.6439598588e-05 3.7887976834e-05 1.6969874711e-05 
-7.6011572977e-05 -8.4594369561e-05 -1.5345780311e-05 -1.7199426506e-05 1.5334448329e-05 0.00012652596488 -0.00012293931724 3.2097206906e-05 3.9992777275e-05 
-0.00025111499843 -2.5005200208e-05 5.7403378267e-05 -0.00013431146637 -4.1177592526e-05 1.8765267679e-05 -0.00016795343382 8.6544996715e-06 -2.6992985344e-05 
-0.00012403861432 -2.6587654502e-05 8.2946926795e-05 9.9055859075e-05 -8.709906911e-06 -0.00016510421388 3.7382656549e-05 -0.00019635357861 -3.4796432815e-06 
3.2276536073e-05 -5.7003961209e-05 -2.494400428e-05 3.2764533492e-05 -2.5365565705e-05 8.7537846606e-05 -0.00010875352209 -6.2807800305e-06 -3.3860753791e-05 
2.7987753549e-05 -5.6771634058e-05 -3.647507279e-05 -0.00017277193704 -5.8947289791e-05 -5.7917523384e-05 -0.00015343501139 -7.3033291809e-05 5.7901179666e-05 
-9.952969683e-05 -2.9951757363e-05 2.8948918168e-05 -0.00022228232578 -3.4002618173e-06 6.9087569958e-05 0.00017542272437 -0.00023008862487 -8.5608813964e-05 
-6.0085482982e-05 1.2189141228e-05 2.6336724917e-05 -1.2676063759e-05 0.00010090107713 -0.00026284438561 -0.00017554048821 -1.7973643832e-06 -2.7449357399e-05 
-2.3180619109e-05 1.3759409879e-05 -5.5914800827e-06 -9.8030368396e-05 4.1821100708e-06 5.5607072086e-05 -0.00011885575095 -0.00014297412072 8.1021065384e-05 
0.00013210747428 -8.4126909257e-05 -2.4560868148e-05 7.0999252384e-05 -0.0003105207732 -7.676527884e-05 -2.801315442e-06 -3.1188412987e-05 2.5053618671e-05 
-0.00016256610966 3.8474516672e-05 -1.1751249898e-05 -6.0268063394e-05 -6.6856109781e-05 -1.8074224039e-05 -8.2315512878e-05 -2.9702748332e-05 5.86337018e-05 
-5.3198713399e-05 -4.9475529105e-05 -0.00017419002384 -2.9252494623e-05 -9.6352025863e-05 0.00013921090453 -0.000167151806 -5.7577998314e-05 3.3736012943e-06 
-0.00013641772323 -0.00023112910646 1.3564503077e-06 9.8323483136e-05 3.2358083979e-05 6.7542017711e-05 1.1756170611e-05 -0.00014767110489 -0.00015999613143 
0.00011503744962 -0.00013097116578 -0.00013365003497 5.5652913921e-05 -0.00023316555614 -0.00039788872867 -0.00018233469376 -1.5689847463e-05 0.00013925959812 
8.9479875178e-05 1.1861654784e-05 2.8615959042e-06 -0.00018067673263 -0.00011275084991 6.8159806163e-07 3.6554444073e-06 4.8388415113e-06 5.3382508679e-05 
0.00013394830716 -2.0634685931e-05 3.5794503111e-05 0.00013624175555 -2.5587098472e-05 1.3146608676e-06 -0.00033150874773 1.5877872388e-05 -8.5018487179e-05 
2.0591659113e-05 -0.00024451880293 -0.00011955184998 -0.00013365021981 -1.2570665923e-05 3.4248681449e-05 -4.8500332032e-05 -0.00026071013386 -0.00023071010826 
3.9733358116e-05 -8.5304965777e-05 -4.869629327e-05 0.00020013283317 -0.00012498401967 1.6328730495e-05 -0.00017658703224 -4.2726070407e-05 0.00021883858546 
-0.000186901273 -9.8732601232e-05 -0.00016052683285 8.0871400318e-05 0.00010355482036 -0.00011922368565 -1.8497381902e-05 1.7732255117e-05 0.00016130477837 
0.00016081968813 -0.00022279392762 -6.0294982423e-06 0.00016066351909 2.9833891067e-05 0.00014301265096 -0.00036115214135 -4.4808329313e-05 -0.0002359694851 
-0.00013105355748 -5.3711017367e-05 9.4393896047e-05 -0.00012055818456 0.00011914935636 2.3827390477e-05 -0.00025504250337 -0.00019034387377 -0.00038753118319 
1.2343790671e-05 -3.2821242022e-05 -0.00021418961154 -0.00013123863916 0.00018355003571 -8.7408658479e-05 -1.5475603585e-05 -1.6874917104e-05 1.5399833534e-05 
-5.3744686453e-05 3.5150292889e-12 0.00021754223253 -0.00018827638751 8.8911298232e-05 -3.4611360517e-05 9.7189367738e-05 2.5626939103e-05 0.00039209912166 
0.00012734390827 -2.7836378656e-05 -8.1040137467e-05 -1.1745305033e-05 4.9728123891e-05 -8.344440209e-06 -3.8082326419e-06 1.8082471605e-05 1.1579105171e-05 
1.1872728663e-05 2.7407908183e-05 -0.00011422780215 -4.168913764e-05 -1.460250183e-05 -2.0128873867e-05 -0.00022589606759 -3.4930554525e-06 -2.3421380726e-05 
2.762713987e-05 -7.3470664879e-06 0.00014871225538 0.00011983405784 8.4467959329e-06 6.5935641262e-05 -0.00019079381243 -5.7680096861e-06 0.00024719713884 
-0.00016376437522 -4.630065264e-05 0.00018935589171 2.5677461826e-05 -3.8905882504e-05 4.3742513665e-07 -8.6531926453e-05 0.00010936967854 4.7866385501e-05 
5.5694257672e-05 -1.4766720584e-05 0.00017469627221 -1.405379043e-05 -4.0245386328e-06 6.0031666728e-05 -4.9838651075e-05 2.4014473345e-12 -0.00010956749742 
8.021387962e-06 4.0481022525e-05 -3.9667715607e-05 -8.5924662327e-05 -5.1087456223e-06 -2.1423715676e-05 3.3162572726e-06 -6.8348721451e-06 0.00015765950897 
6.1004900371e-05 -1.4165120488e-05 -0.00024253181127 -0.00011565368451 -2.9667153322e-05 -0.00012008160173 3.4046650047e-05 2.3993193125e-05 -3.283508337e-05 
3.7797046638e-05 -2.4762292679e-05 -1.3272167155e-05 -5.1087472445e-05 -0.00023234041501 -1.4570953532e-07 -0.00016137374123 -2.6237788025e-05 7.7485998479e-05 
-6.1078944537e-05 1.4491240308e-05 2.0532510676e-05 -4.9339771757e-05 -1.8160014037e-05 3.3965135469e-05 2.6190940985e-05 1.2435328578e-05 0.00013167740367 
-8.4779987386e-05 -3.0476970291e-05 6.8414868773e-05 -0.00027427058848 -3.4950225419e-05 -1.9415982122e-06 8.5429473214e-05 -1.4502973991e-05 5.4355329384e-05 
7.6683888331e-05 -3.1963148079e-05 1.1580613724e-05 -9.4103636213e-05 3.9750732396e-05 -5.8703347267e-05 -2.3519996555e-05 9.0519189529e-06 6.073658254e-05 
-0.00022839693286 -6.047003002e-06 -2.7268022949e-05 -7.2263061339e-05 -2.0433287743e-05 3.8854533801e-05 -0.00017129968637 -6.7539469851e-05 7.1888332403e-05 
0.00011057790565 -8.4456917471e-05 -6.5577636446e-05 -0.00015371916688 -0.00015203428875 0.00017217004624 -3.8916584911e-05 -0.00035669409961 -0.00015246009119 
-0.00020494889355 -1.5456032014e-05 -4.6671598881e-05 8.5222519859e-05 -3.498971866e-05 -7.2396931749e-05 -0.00029891220601 -2.3256543657e-05 0.00012902497985 
-0.00029088996169 5.729971218e-05 9.5480949895e-05 7.4207073127e-05 3.2981372088e-05 -2.6920307952e-05 3.8136522369e-06 -0.00010233295516 -0.00012769509523 
-0.00014400137462 3.8426580006e-05 0.00010485346796 -9.2078286008e-05 -0.00015060865383 6.2684093479e-05 -0.00022513683541 0.00011384754845 1.1941866388e-05 
-0.00025575626583 5.4767224688e-05 0.00018271644679 -5.5451131751e-05 2.1436377779e-05 -2.2580386671e-05 -7.1324221165e-05 3.2835451133e-05 1.8307583251e-05 
-0.00015875844386 -0.00024223561828 -3.2329498691e-06 -8.8575098787e-05 -6.7588145468e-05 4.1341965253e-05 -3.57208078e-06 -0.00018028949422 -1.1547954717e-05 
-7.6157190814e-05 1.2240822367e-05 2.0237369747e-05 -0.00018679078587 -0.00013036191937 1.0177833344e-06 0.00014883109015 -7.1626211792e-05 -5.8092584102e-05 
5.0578733747e-05 -0.00020434416521 -0.00029939088078 -0.00023875617627 -0.00030042199665 -0.00032327044565 -0.0001550601334 -0.00010260471962 1.9382211697e-05 
4.7117285345e-05 -3.5866044558e-05 -0.00030323515675 -0.00011126941304 1.8831010098e-12 4.9845776733e-05 7.4484546578e-06 -8.9371525218e-05 -0.00018456070323 
-2.7568037414e-05 0.00020982381142 -1.3918692051e-05 -0.00040655539062 -0.00014260265753 0.00011479585636 -7.3201136495e-06 6.6258797726e-06 -0.00011314067337 
-0.0068911072076 -0.009997470065 0.023654071622 -0.00019143588503 -0.00013530587453 -1.2160711091e-05 -9.591858815e-05 -3.3988855171e-05 -1.6663325808e-08 
0.00020602466773 5.0184507274e-05 -7.9232850114e-05 3.3848039526e-05 3.1744017955e-05 -6.3717229953e-05 -9.2647708677e-05 5.7926496536e-06 -3.9899368629e-05 