# vtk DataFile Version 4.1
vtk output
ASCII
DATASET UNSTRUCTURED_GRID
POINTS 1274 float
0.273691 -1.29445 -0.0532988 0.273703 -1.3022 0.0958868 0.279389 -1.29495 0.317536 
0.157825 -1.31608 -0.21105 0.298441 -1.29136 0.17815 0.411516 -1.23452 -0.0670163 
0.381376 -1.2911 0.322107 0.469999 -1.23549 0.492982 0.512118 -1.24366 -0.00809364 
0.637033 -1.25336 -0.00565654 0.538853 -1.34671 0.187565 0.641188 -1.22269 0.434238 
0.852402 -1.27261 -0.151207 0.843445 -1.25445 -0.0829426 0.657706 -1.2964 0.158067 
0.755445 -1.27584 0.265855 0.696154 -1.27025 0.218727 0.79377 -1.20795 -0.0448982 
0.637056 -1.20762 -0.0560742 0.672379 -1.34643 0.00779707 0.715265 -1.19076 -0.0822166 
0.690726 -1.30817 0.278199 0.39101 -1.23456 0.281879 0.61519 -1.27213 0.224814 
0.912792 -1.23667 -0.076428 0.301086 -1.2505 0.128406 0.657513 -1.20791 0.363644 
0.814021 -1.195 -0.113175 0.921212 -1.31395 -0.000273633 0.822786 -1.22936 0.0380455 
0.971665 -1.20858 -0.0149779 0.656932 -1.22807 0.0466182 0.557519 -1.21903 0.378502 
1.0824 -1.2229 -0.287874 1.03366 -1.24154 -0.141533 0.503994 -1.2214 0.280692 
0.789829 -1.27886 -0.0126435 0.63489 -1.27389 0.285654 0.405204 -1.25075 0.137797 
0.951944 -1.20277 0.0594977 0.851365 -1.22687 -0.208435 0.798086 -1.23313 0.160132 
0.838121 -1.21214 0.108808 0.748358 -1.22103 0.21596 0.903331 -1.24345 -0.00521322 
0.98533 -1.2383 -0.236456 0.89174 -1.25243 0.291594 0.886577 -1.21794 0.230282 
0.451936 -1.2994 -0.306763 0.167806 -1.33258 0.280778 0.145296 -1.35891 -0.0654374 
0.0370367 -1.33486 0.173703 0.286319 -1.34238 0.471592 0.25582 -1.33815 0.385004 
0.239832 -1.31339 0.164997 0.37958 -1.35341 0.2851 0.153399 -1.34835 -0.272836 
0.359456 -1.41001 0.0556595 0.611752 -1.28942 -0.213192 0.21777 -1.35346 -0.222049 
0.399499 -1.34728 -0.15129 0.371557 -1.35524 0.404671 0.399108 -1.29305 0.394595 
0.278089 -1.34831 0.208926 0.213379 -1.33842 0.00550894 0.485063 -1.26625 -0.187322 
0.41318 -1.3608 -0.0237358 0.583408 -1.34512 0.299893 0.433174 -1.28264 -0.142614 
0.3041 -1.28408 0.243124 0.552658 -1.36024 -0.0193863 0.376618 -1.27371 0.194408 
0.331406 -1.29839 0.0617537 0.330481 -1.2619 0.445491 0.508646 -1.2275 -0.0834413 
0.623473 -1.4128 0.0996408 0.543833 -1.25123 -0.240648 0.212463 -1.28188 -0.175312 
0.568436 -1.35597 0.0415865 0.54154 -1.30128 -0.0340356 0.327935 -1.26215 0.297831 
0.45128 -1.28847 0.450287 0.579767 -1.33506 0.469949 0.446519 -1.28097 0.264234 
0.511097 -1.29956 0.290975 0.451909 -1.36114 0.112116 0.615823 -1.30373 -0.0477906 
0.643844 -1.2274 -0.214024 0.972713 -1.28517 -0.284491 0.570427 -1.28641 0.17224 
0.474843 -1.28629 -0.250682 0.76457 -1.28925 0.34391 0.645492 -1.32734 0.220662 
0.577107 -1.23885 -0.053879 0.999444 -1.26672 -0.0443551 0.741684 -1.25474 -0.061058 
0.684796 -1.29043 0.0494219 0.876547 -1.3492 0.162089 0.603178 -1.25473 0.0797029 
0.78025 -1.23222 0.388036 0.790696 -1.24156 0.464746 0.54554 -1.26311 0.232785 
0.826001 -1.35952 0.207719 0.622002 -1.22521 -0.14481 0.687868 -1.23265 -0.0331788 
0.553128 -1.24085 0.123731 0.732404 -1.23673 0.0211878 0.808442 -1.30048 0.177952 
0.828874 -1.25052 0.340802 0.681254 -1.26711 0.329784 0.809198 -1.22666 0.532537 
0.912637 -1.24745 -0.369637 0.769563 -1.30998 0.0489922 0.437621 -1.25604 0.192625 
0.723891 -1.22675 0.535002 1.16355 -1.22121 0.0117073 0.628916 -1.26638 0.530086 
0.734236 -1.2257 0.317624 0.704891 -1.24509 0.415677 0.578899 -1.24347 0.0153212 
0.958737 -1.29285 0.219355 1.10576 -1.23871 -0.167188 0.838922 -1.30531 0.0441803 
0.976857 -1.2261 -0.0923169 0.908231 -1.28983 0.0618057 0.616264 -1.23687 0.147414 
1.32158 -1.19723 0.52606 0.738717 -1.25647 0.160974 0.940086 -1.22536 0.193947 
0.952188 -1.20838 0.423028 1.21199 -1.26358 -0.182886 0.90507 -1.23204 0.0977133 
1.045 -1.22594 -0.00804236 0.863872 -1.23346 0.171972 1.10043 -1.25832 -0.0323556 
0.963328 -1.26304 0.0318287 0.0866727 -1.41341 -0.246646 0.285896 -1.36067 -0.213133 
0.43007 -1.40919 -0.397639 0.0351688 -1.35955 0.315527 0.213228 -1.32118 0.482541 
0.0966334 -1.40799 0.156631 0.216653 -1.34412 -0.402017 0.500377 -1.31852 -0.348261 
0.0870853 -1.35983 -0.381516 0.493668 -1.34761 0.459683 0.251017 -1.27901 0.529061 
0.147179 -1.35436 0.379477 0.241034 -1.41179 0.297762 0.0966384 -1.35822 -0.0126063 
0.276953 -1.3201 -0.156549 0.080088 -1.35881 -0.288994 0.472134 -1.35384 0.30986 
0.348608 -1.40768 -0.0292458 0.129601 -1.34345 0.230525 0.213204 -1.33464 0.0980934 
0.219575 -1.29566 0.291472 0.320489 -1.29145 -0.294925 0.270937 -1.34801 0.040449 
0.422441 -1.31829 0.166088 0.0825169 -1.29267 0.215253 0.515635 -1.30065 0.418954 
0.893178 -1.30021 0.533049 0.546987 -1.3557 0.420378 0.240765 -1.29491 0.228703 
0.318136 -1.35522 0.157006 0.318836 -1.35427 0.0926471 0.367063 -1.28848 -0.232334 
0.520262 -1.33291 -0.241365 0.492581 -1.2928 0.204087 0.548556 -1.22587 0.527673 
0.644544 -1.28729 0.408218 0.776825 -1.34076 0.462166 0.423683 -1.34425 0.228908 
0.676843 -1.41468 0.136501 0.588858 -1.22237 -0.39773 0.60112 -1.35844 0.188473 
0.85423 -1.22704 -0.316259 0.390888 -1.29518 -0.298429 0.828423 -1.29975 0.283791 
0.759077 -1.28958 0.41981 0.332718 -1.28437 -0.172024 0.5713 -1.27627 0.288702 
0.670133 -1.27266 -0.166664 0.490129 -1.24966 0.145398 0.879506 -1.29188 0.214274 
0.97035 -1.38756 0.0887075 0.535628 -1.28034 0.0564712 0.995081 -1.25528 0.443838 
0.648742 -1.33019 0.341091 0.941781 -1.29607 -0.0631117 0.671691 -1.21076 -0.283747 
0.725661 -1.22904 -0.145178 0.791285 -1.30418 -0.0807031 0.820904 -1.34984 -0.0454576 
0.739906 -1.31834 0.178018 0.702732 -1.35507 0.138493 0.859666 -1.2991 -0.026294 
1.00889 -1.24926 0.0866183 1.06212 -1.27489 0.0386027 0.912289 -1.25103 -0.140123 
0.786903 -1.28881 0.11492 1.10914 -1.28491 0.393956 1.0043 -1.24677 0.188983 
0.818595 -1.24335 0.228997 0.698467 -1.25827 0.110984 0.931504 -1.36149 0.21637 
0.85725 -1.28509 0.118914 1.19582 -1.36099 0.117213 0.947553 -1.35374 0.143711 
1.1238 -1.25904 -0.0980638 1.02647 -1.26086 0.275339 0.763097 -1.22443 0.0951174 
0.99304 -1.35416 0.196432 0.297586 -1.4153 -0.358857 0.199591 -1.37216 -0.32722 
0.0322034 -1.4135 -0.0345752 0.441352 -1.28069 0.531353 0.033986 -1.41171 0.191295 
0.0880263 -1.32437 -0.107011 0.340216 -1.30686 -0.394474 0.0369042 -1.36212 0.0211661 
0.0326481 -1.34525 0.488271 0.346449 -1.40639 0.198492 0.151729 -1.41314 0.444412 
0.323939 -1.34691 0.532516 0.0880985 -1.39516 0.227328 0.326589 -1.35887 -0.265524 
0.218197 -1.35075 -0.129058 0.248175 -1.41429 -0.201499 0.124866 -1.33759 0.152999 
0.311926 -1.29153 0.502006 0.0914961 -1.33725 -0.219811 1.0055 -1.41418 0.472961 
0.234118 -1.40735 0.202617 0.218273 -1.34165 -0.0602653 0.403433 -1.35845 -0.282323 
0.150959 -1.32354 -0.00109408 0.582365 -1.41374 0.215377 0.469021 -1.4131 0.144612 
0.452344 -1.28906 0.341058 0.273894 -1.35695 0.322755 0.194317 -1.36247 0.157593 
0.311532 -1.34571 0.270425 0.8025 -1.4127 -0.226465 0.190241 -1.3881 0.264684 
0.356589 -1.34236 -0.0620882 0.161688 -1.30576 -0.1208 0.394478 -1.41526 -0.141392 
0.293226 -1.35427 -0.0873623 0.465441 -1.33984 0.396032 0.479172 -1.2549 0.394898 
0.297882 -1.3599 -0.0221441 0.358485 -1.34945 0.0162746 0.80086 -1.29757 -0.212192 
0.378958 -1.36167 0.155179 0.336238 -1.34529 -0.179582 0.352609 -1.29995 0.131946 
0.377618 -1.29363 0.256162 0.347399 -1.33269 0.211652 0.526013 -1.23579 0.436699 
0.447907 -1.29513 0.108875 0.734849 -1.25924 -0.210362 1.05806 -1.36701 -0.147662 
0.310259 -1.30423 0.00398003 0.443749 -1.30484 -0.0198057 0.836495 -1.41477 -0.140671 
0.613578 -1.3623 -0.0114263 0.650017 -1.36312 0.275163 0.50154 -1.35074 0.244419 
0.518359 -1.2607 0.345301 1.14794 -1.36796 0.380257 0.628732 -1.36889 -0.0746328 
1.12051 -1.28377 -0.21923 0.725227 -1.29678 -0.116515 0.853628 -1.32463 -0.107676 
0.686969 -1.36359 -0.051476 0.746337 -1.3416 -0.0064923 0.897878 -1.35459 -0.0555617 
1.05002 -1.2361 0.467541 0.635945 -1.31483 0.0923112 0.841057 -1.41501 0.254053 
0.65273 -1.25801 -0.0945369 0.895572 -1.35379 0.0898134 1.0982 -1.31893 -0.00103791 
1.01076 -1.31113 0.00852824 0.81334 -1.37071 0.0466106 0.753468 -1.33956 0.101963 
0.695641 -1.29829 -0.0352375 1.05049 -1.34979 0.154957 0.854849 -1.41217 0.0913599 
1.1805 -1.23151 0.410086 0.994586 -1.29003 -0.106068 1.09758 -1.40835 0.172962 
0.963297 -1.37555 -0.0367004 0.971531 -1.31629 0.0849856 0.859307 -1.20948 0.455455 
0.0341699 -1.37735 -0.227682 0.0314946 -1.41421 -0.1734 0.0354917 -1.41021 0.467888 
0.0724231 -1.41424 0.307767 0.083894 -1.3714 0.528368 0.0998781 -1.41553 0.47964 
0.0769982 -1.41064 -0.339151 0.166908 -1.39476 -0.39495 0.384436 -1.36053 -0.403686 
0.0336249 -1.41208 -0.285906 0.0513458 -1.41294 0.0665732 0.264793 -1.4091 0.470981 
0.0355905 -1.41055 0.363931 0.240183 -1.4087 0.370425 0.142687 -1.41182 0.527143 
0.301294 -1.35415 -0.332209 0.142928 -1.41429 -0.331468 0.145812 -1.41471 -0.26913 
0.640471 -1.41014 -0.320199 0.424303 -1.41293 -0.23706 0.115843 -1.41367 0.0604723 
0.0974837 -1.34392 0.422099 0.392079 -1.33181 0.529311 0.109644 -1.35188 0.315576 
0.50096 -1.4062 0.40071 0.175033 -1.37139 0.0533939 0.310251 -1.40789 -0.168353 
0.292569 -1.41419 0.0897305 0.209824 -1.40945 -0.0930596 0.355203 -1.34888 0.469579 
0.31672 -1.32227 0.415514 0.291472 -1.40986 0.249617 0.713842 -1.35034 0.518648 
0.207169 -1.3518 0.332021 0.410989 -1.35009 0.34966 0.453612 -1.34853 -0.224193 
0.383519 -1.35579 -0.218957 0.0654748 -1.35875 0.109045 0.455342 -1.40706 -0.173022 
0.243216 -1.3527 0.267299 0.263624 -1.35817 0.12857 0.42054 -1.35381 0.450599 
0.336719 -1.32094 -0.122276 0.457288 -1.41043 0.0499057 0.621465 -1.28607 -0.382244 
0.52335 -1.2921 -0.290442 0.569908 -1.41475 0.0649383 0.518804 -1.2859 0.489595 
0.648229 -1.41098 0.225394 0.550339 -1.35132 -0.296691 0.456619 -1.41397 0.209135 
0.680595 -1.36145 0.394769 1.07273 -1.29135 -0.269891 0.462944 -1.28389 -0.0797428 
0.427936 -1.3414 -0.0860046 0.501911 -1.32634 0.0149015 0.438323 -1.34184 0.037758 
0.529318 -1.33121 0.355558 0.571465 -1.28974 0.535691 0.942796 -1.2548 0.531367 
[...]
POINT_DATA 1274
FIELD FieldData 10
VELOCITY 3 1274 double
-2.8542163388e-06 -1.4077211142e-05 -9.5066261395e-05 -0.00026055074831 3.7294173389e-05 4.5070768597e-05 -0.00019240587712 -4.4660837013e-05 0.00015559050213 
-4.0321156236e-05 -4.3295758105e-05 0.00010955692647 -0.0001481239688 -1.5841569656e-05 4.5944727814e-05 -0.00019494438204 8.5765941347e-05 0.00016457839119 
-0.00024431183926 -6.1140044168e-05 3.3103901451e-05 -0.0002994285597 3.1377936752e-05 -0.00014460952556 -7.6698296507e-07 7.1329813507e-05 -0.00017610541983 
4.4324034793e-05 -0.00011322487312 -0.00015119422505 -0.000137548424 3.8950263066e-05 -1.333867389e-05 -0.00023316913799 -0.00025842106477 -9.3685107565e-05 
1.1538894844e-05 -0.00014143230052 2.9265364519e-05 -0.00011337806322 1.1000145104e-05 -3.2896268574e-05 -6.7938085022e-05 -3.3793690442e-05 6.6839884207e-05 
-8.3395343026e-06 6.3153681646e-05 -2.0510496529e-05 7.1531799359e-06 7.9716770268e-05 -7.0825870274e-05 -0.00030740272558 -0.00014877527484 -4.8706700001e-05 
-6.9956170186e-05 -0.00019949023617 -0.00029013308247 -5.5743498367e-05 1.5824062595e-05 8.3748659468e-05 0.00023684657619 -0.000202451162 -0.00019783904985 
0.00011648494884 -4.4988528905e-05 -0.00021972969451 3.0660687121e-05 -2.8906217165e-05 0.00015894079071 -0.00011428481906 -1.8418686607e-05 2.6409703794e-05 
-0.00012518363765 -0.00010057926025 0.00021204946165 -0.00020164761144 -9.6205401177e-06 8.9978909005e-05 -2.8826764459e-05 -0.00012133821936 -1.7319603571e-06 
-0.00029912134976 -0.00012442336481 -6.7187439568e-05 -0.00010724910305 -5.8972770583e-05 8.6603145816e-05 -0.00039017723956 -9.0638342596e-05 -8.2231658e-05 
-0.00018528462149 -6.7354109611e-05 0.00020443198919 -3.411074943e-05 5.0115535359e-05 -0.00023049833918 -0.00025757175851 -0.00020078411046 5.5184995161e-06 
2.693618565e-05 -0.00021218274765 -0.0001148117269 0.00018606336972 9.4464642719e-05 -4.5673680677e-05 8.3246924846e-05 -0.00014577922182 2.4030676051e-05 
-0.00012640504945 -0.00021142685462 -0.00019790415546 -5.4472822666e-05 -0.00019931506126 -1.3872095847e-05 -8.4891363304e-05 -0.00010470662238 -0.00012010817416 
0.00044330140024 -0.00024849453428 0.00027053140524 -3.3750697903e-05 -0.0002957717638 3.7823194017e-05 -7.5156184368e-05 3.3500977963e-05 -3.1895563999e-05 
-0.00015630946322 -1.5068653594e-05 -0.00012819242991 0.00013693924536 -1.8414808143e-05 -0.00015801783173 -0.00021375904433 2.5666123562e-05 0.00034982994732 
0.00012273669916 -0.00016912248879 8.2697987047e-05 -4.6135448649e-05 -0.00014553776695 4.6430766476e-05 -0.00039758467295 -4.484812993e-05 0.00017773834115 
-0.00026333695659 2.2859733219e-05 -1.8462040423e-05 -5.2402818078e-05 -8.4418596093e-05 -9.8222907471e-06 5.065639428e-05 -8.7313590304e-05 -1.3930490284e-05 
1.8725740029e-05 -0.00031068351271 9.9456787901e-05 -0.00017536042604 -4.8371187323e-05 -7.6563584383e-05 -0.00013553405121 0.00012529481111 3.4942470272e-05 
-0.00011208548162 -6.9466268142e-05 0.00017372467707 -0.00011176048602 -2.5999540183e-05 -4.9901132902e-05 7.4850575494e-05 1.4192673611e-06 4.5247640806e-05 
6.2028858412e-05 -2.5045869383e-06 6.147946197e-05 -0.00017733223974 0.00013144172513 -6.7140046191e-07 -3.2777547973e-05 -5.4770829442e-05 0.00015145656827 
-0.00012689367348 3.2684907797e-05 0.00025329731496 -0.00017708495664 -0.00011234423982 -4.9185500683e-05 -0.00030389488796 -3.8670503535e-05 2.1902633345e-05 
1.2096352935e-05 -4.3101681159e-05 0.00016342994129 -0.00017177585166 -0.00024437170592 0.00020642102072 -0.0001720481252 -6.0262008795e-05 2.7017747023e-05 
-0.00027788594789 4.467134312e-05 4.4697893619e-05 -4.7591364891e-05 4.659792149e-05 5.1087879435e-05 -0.00020643492242 9.4104730653e-05 2.9803625846e-05 
-0.00011892925049 -1.464959662e-05 8.6045246801e-05 -0.00017014379934 5.4419567056e-05 0.00015905661498 -0.00014193099068 -2.5353766262e-05 -6.8373938865e-05 
1.219774623e-05 -8.8086902607e-05 -5.3161278956e-05 -0.00020369409062 8.7392339793e-05 -1.6650751715e-05 -2.4634259282e-05 -5.9497598056e-05 -7.0150677196e-05 
-9.5952607644e-05 3.0624502689e-06 0.0001342270703 -0.00024049596327 -0.000111613922 8.2193273306e-05 3.3313946496e-05 -0.00012136601557 5.1763168333e-05 
3.7460260671e-05 4.7959035854e-05 0.00019042901194 0.0002636528101 7.9107714096e-05 0.00013351139886 -0.00022243672001 -1.2864267682e-05 0.00010972243022 
-0.00029568867477 -8.0487599565e-05 4.4223436478e-05 -0.00026826271156 -5.3204982442e-05 0.00013365695746 1.1172470531e-05 -4.9752670759e-05 5.4408587308e-05 
-2.0932967021e-07 -0.00022665534389 -0.00012314556632 -0.00016302365801 -7.1838461745e-05 -0.00012258188373 0.00020728783466 -0.000186989993 -0.00014047723757 
0.00028728498834 -0.00011963182341 -4.7156530728e-06 5.6681637046e-05 -0.00016092382212 0.00010739194074 1.343376753e-05 -0.00015784353608 -7.7248428047e-05 
-0.00020612513371 0.00010633609492 1.6156930316e-06 -6.6851227469e-05 -7.118594999e-06 -2.1762579199e-05 -0.00011460719439 -3.2133626758e-06 -5.1339588715e-05 
1.3563072689e-05 -0.00032070240649 -0.00020056499877 -7.5669741617e-05 2.4460239059e-05 0.00016535334214 -7.2720971661e-05 -0.00033783671758 -0.00029948544695 
-4.059451528e-05 4.846756547e-05 -5.3822585843e-05 0.00020611148436 -6.7007949737e-05 0.00016130503968 3.8539067387e-05 -1.3262620576e-05 -0.00015584940602 
-7.0768460381e-05 1.2467636268e-05 -8.5967826432e-06 -0.0002903774719 4.0114578654e-05 4.9373497784e-05 -1.1938820457e-05 -1.8008956115e-06 -0.00017272218522 
-0.000237803938 0.00011499129982 6.5250100063e-05 -1.3850769518e-05 -0.00033522260123 -0.00016284181424 -1.1745278045e-05 -0.00010417225815 -0.0002537076673 
-3.0516704991e-05 -0.00029849911124 -0.00020629204359 -7.0926332813e-05 -1.8294438681e-05 -0.00020398698814 4.8551634947e-06 1.43993692e-06 -0.00016174288166 
-7.3635200182e-07 -0.00024629565254 9.9814393576e-05 -2.9624266672e-05 -9.5253986736e-06 -0.00019750117837 -0.00012327280766 -3.5390390284e-05 1.0321677745e-05 
2.323426633e-05 -7.1692014774e-05 0.0001578657669 -0.00012041652102 -0.00032617112102 4.8468824537e-05 -0.00015073460581 -0.0001047699427 -8.1624506235e-05 
1.4048945587e-05 -1.1481121876e-06 -5.2074121339e-06 7.6931018526e-05 -0.0001552825894 -0.00018153508058 -5.4867728346e-05 -0.00010838975184 -6.711474611e-05 
-3.7727472519e-06 2.4495225835e-05 -2.1917062749e-05 -9.2878432398e-05 9.5744823934e-05 2.8811233907e-05 -9.6533089961e-06 -0.00027458339919 -0.00020300928366 
9.4960815673e-05 -0.0003770198829 -0.00021747490259 8.0375367819e-05 8.7418060249e-05 -0.00018325026786 -0.00019552698073 -4.2350780942e-05 -2.4231828789e-05 
-0.0001750311981 -9.4852892882e-05 0.00010487191331 -7.9300844552e-05 -4.2112009801e-06 5.0174993294e-05 -0.00014447618677 -3.6064994478e-05 -0.00013630996296 
-1.1049689729e-05 -5.151719923e-05 -6.679230063e-05 7.1639779704e-06 -8.5149056427e-05 -0.00013228770409 -0.00030096197096 -0.00020412782118 0.00036108535369 
-0.00045006993348 -0.00014188062006 3.3804076878e-05 0.00012402643643 -0.0001956855951 -0.00021281676746 -0.00010545588222 6.4081521983e-05 -0.00010342319229 
-0.00015140826478 -0.00014790528063 -8.3248196582e-05 4.89825056e-05 -4.0902017274e-05 -1.364976199e-05 -0.00028731423073 -0.00013903808363 -0.00029032636773 
-6.4351949895e-05 -0.000245291605 2.9601157503e-05 -2.6534576549e-05 -1.0548747293e-05 -2.1607216855e-05 1.5108780453e-05 7.6311169987e-05 -9.5404247636e-05 
-2.5285144332e-05 2.2855438152e-07 -1.0972522144e-05 4.6719814116e-06 1.8185583889e-05 0.00019172982608 -4.1015784023e-05 -7.6647837513e-05 -2.9163694616e-05 
-7.7873038647e-05 5.226794364e-06 -0.00010912853153 7.1922442125e-05 -5.6057359278e-06 1.3099489725e-05 -0.00014994679636 1.3000340662e-05 -1.648277641e-05 
-2.3377662112e-05 2.5417420723e-05 -2.3734660695e-05 2.3098860194e-05 4.132812208e-05 -7.6694187715e-05 -5.4050568826e-05 -3.9750432443e-05 -7.433534177e-06 
0.00010864083779 6.5344616604e-06 6.5959021867e-05 -3.4275638759e-05 -6.0188176068e-06 3.1056840496e-05 -7.5061444066e-05 -1.3307471735e-05 -0.00010969243657 
-2.193648817e-05 -0.00018236101188 0.00021049438147 -3.4336072784e-05 2.4218708883e-05 -5.5069792026e-05 -0.00027324064032 1.0538631764e-05 -0.0001266807573 
-0.00012822717656 0.00015837085019 9.4584162439e-05 -8.102712103e-05 4.8489577014e-05 9.7116435913e-06 -0.00011153677762 -6.7328331794e-05 -5.6407043293e-05 
-0.00013209874912 4.354548815e-06 4.3631078414e-05 -0.00024838538905 -1.2366502165e-05 5.4412378852e-05 4.2567749191e-05 -2.9860740728e-05 1.6261582325e-05 
-9.7041538718e-05 1.9956037478e-05 -6.4666502135e-05 -0.00014183625497 -3.6622388091e-05 -1.8224600447e-05 0.00014423023308 -0.00011224103343 -5.6268953998e-05 
-9.558967034e-05 9.9252453034e-06 0.00014593048726 2.0028995825e-05 -4.7037415845e-05 -5.3557597222e-05 -0.00014414705207 -9.799071532e-06 2.6867143569e-05 
-9.1859369081e-05 4.9213316912e-05 1.728380526e-05 -0.00014563472665 4.3405384226e-05 0.00012553430389 -0.00022537266039 -9.3723158742e-05 6.1083672127e-05 
0.00015905746449 -0.00030443815905 0.00015658217817 -9.0062491662e-05 8.9043576817e-06 4.0277731163e-05 -1.1603686789e-05 -3.9761975006e-05 -1.0721116078e-05 
-0.0001028799215 2.7193119768e-05 -8.5016718642e-05 -0.00022270812267 7.7903458131e-05 0.00024559185862 -0.00024806492648 9.2232353717e-05 -6.0870523654e-05 
-0.0001264389559 9.7016200591e-06 4.192354655e-05 0.0041841396801 -0.0041645439017 -0.024511476489 -0.00012015061692 4.2693418726e-05 -7.0926467622e-07 
-4.9680653847e-06 -0.00022166075261 0.00022670102769 -0.00027613650404 -9.3355263794e-07 6.7262210964e-05 -7.5820904377e-05 -7.8773663589e-05 5.4964274625e-05 
-0.00012401463213 5.1543403381e-05 -0.00011817402834 -0.00023599561067 3.1960012838e-05 7.6264670428e-05 -9.5125633024e-05 -5.2082367918e-05 -0.00011602540219 
-3.3337974074e-05 -0.00038764402482 -4.8644622579e-05 -2.5730966044e-05 -4.2036270146e-05 9.4549327763e-06 6.6713095003e-05 6.4361294303e-05 7.1831864939e-05 
-4.7114110087e-05 0.00018649243243 6.6060519157e-05 -2.4740446491e-05 -4.3291797771e-05 -1.6972132901e-05 0.00034065610508 -0.00031256814578 -0.00015775816093 
1.3642812059e-05 -9.6577804345e-06 1.710077685e-05 4.2135851343e-05 -7.4545417309e-05 0.00013051815469 -0.0021952651523 0.00051232592921 0.00058763554832 
-0.00013568636826 -0.00016309765421 -0.0002689383359 -6.269897983e-05 -5.1780588962e-05 -3.8940313618e-05 0.00012823704301 -3.5753750335e-05 -0.00020969312727 
-4.9115081665e-05 -6.1117485208e-05 -0.00015344201085 -0.0002547435217 -9.5709668798e-05 0.00010106227424 9.8641959494e-06 3.4056344272e-05 0.00014757812725 
0.00012153375135 -3.6087267184e-05 -0.00018872427865 5.8096316085e-05 -0.00012354157585 -8.8362707518e-05 -1.3082171616e-05 -4.4552467779e-05 0.00020971111775 
-4.4077556663e-05 -0.00010741348521 -0.00014196565447 -0.00025291043592 -0.00067808031643 -0.0006104098176 -5.719706111e-05 -2.7390865147e-05 0.00010984366337 
7.5398815745e-05 -0.00012226353948 -8.2953099267e-06 -0.00018346620555 5.4243720692e-06 1.1220232785e-05 -0.00028867052423 -0.00025046189077 -0.00039802920981 
-1.3204866998e-05 0.00010466094775 -0.00019355703212 -5.5385637989e-05 -0.00011739624876 7.2079638405e-05 0.00013549952894 0.00014192667362 0.00014973072469 
1.0368119766e-05 -0.00012644868042 -0.00020686465717 -6.799859219e-06 -0.00015365091653 7.7405194807e-05 -0.00012862856202 -0.00017063041441 -0.00018466885512 
-0.00018599947406 -0.00069499638754 -0.00027492863132 8.6119913795e-05 0.00014152233962 -0.00012400731583 -5.5626548328e-06 2.122836297e-05 -5.0178387457e-06 
1.4467561244e-05 -1.4264001112e-05 -6.5827895129e-05 -8.0274325624e-05 4.7174236541e-06 -1.0558989914e-05 1.2912213638e-05 -0.00025911917889 0.00017706073239 
5.5880834757e-05 -0.00021163864295 -2.8704835617e-05 1.324854239e-05 -5.995936329e-05 -4.5052109367e-06 1.8340800744e-05 1.2752641402e-05 5.4644582847e-05 
-6.1270262007e-06 5.3638517905e-05 -0.00017655792272 -9.7334756767e-05 -2.3197235164e-05 3.457956191e-06 -0.00028513321783 0.00018196224975 -0.00019942953203 
-7.4656494329e-05 -2.5192488206e-05 3.11133322e-05 -2.96985165e-05 6.1909873228e-05 3.1875689018e-05 -3.1956062339e-05 -1.7842132908e-05 -4.282166903e-05 
-0.00013097744468 -6.2988239999e-05 6.7103344119e-05 -0.00061799765895 7.3975391257e-12 0.00080473983805 -0.00017868734636 4.0640409854e-05 3.2058214866e-05 
-5.8305045375e-05 -6.0277908095e-05 -5.1316378566e-05 -6.7112948137e-05 0.00018662173126 -0.00011694696604 -0.00011069378514 -9.4527747384e-06 2.0298051682e-05 
-0.00013708541454 1.6732416055e-05 -6.7231189922e-05 4.9017618018e-05 -0.00011510001727 0.0002165216975 2.0884681003e-05 2.8811089522e-05 3.5856939965e-05 
-8.0217139177e-05 -0.00010681005214 -9.5438936284e-06 -9.6770619718e-06 2.5404219028e-06 0.00014153789266 -0.00012568422654 3.178250958e-05 3.6352172472e-05 
-0.00027037935746 -3.3769251529e-05 5.94627042e-05 -0.00010692636278 -5.9119991437e-05 1.5847735304e-05 -0.0001804108808 1.3953435086e-05 -1.9857050937e-05 
-0.00012030159883 -4.2892994775e-05 6.814122914e-05 0.00010829976198 -1.4482443715e-05 -0.00016742334437 2.1497209538e-05 -0.00018103832553 2.2632962891e-05 
8.2462633752e-05 -4.8396561342e-05 2.7876779793e-05 -1.2827075015e-05 6.0765429912e-06 9.8752671234e-05 -0.0001000594981 -3.284778826e-06 -3.6198913843e-06 
6.8078889556e-06 -5.3782242524e-05 -2.1845226567e-06 -0.00020178606201 -8.1623630195e-05 -6.1395635667e-06 -0.00012355095325 -0.00014263017529 4.0221954155e-05 
-0.00011325831591 -5.5504768594e-05 5.6326940244e-05 -0.00021987884558 2.7458365005e-06 7.8827373255e-05 0.00019303594887 -0.00026451826778 -0.0001252864134 
-9.4758839336e-05 -8.5592589009e-06 5.2117195948e-06 -4.6127399659e-05 0.00013059168919 -0.00027313020823 -0.00015482994668 -1.6916580683e-05 -2.1270458371e-06 
-7.0132657817e-07 1.9693536824e-05 2.050611963e-05 -8.6401101796e-05 2.8897022399e-06 8.0218078921e-05 -0.00014639842419 -0.00016977898781 6.6204929228e-05 
0.00011763290641 -8.5180603509e-05 -2.5801710048e-05 0.00017159015625 -0.00023118792096 -0.00019709343228 -1.8622849878e-05 -3.6793582436e-05 -1.5258575579e-05 
-0.00020265104024 -5.8333778646e-06 2.2667979616e-05 -5.9899505923e-05 -7.0616448319e-05 -1.5651790399e-05 -3.7421562014e-05 7.1447913082e-06 6.4876986987e-05 
-0.00010508014617 -3.5715430596e-05 -0.00021864008397 -2.2505448649e-05 -9.2471946459e-05 0.00012516337505 -0.0001421321186 -3.5676212422e-05 -8.9682746659e-06 
-0.00013296496166 -0.00023533166444 1.8379110986e-05 0.00010479508501 1.3149505285e-05 8.3670918661e-05 6.140139036e-05 -0.00020058956577 -0.00017641629682 
0.00010636289335 -0.00011947072144 -0.00014970951608 3.6409475204e-05 -0.00023930956643 -0.00040622403258 -0.0001440333087 -6.2064089362e-05 0.00017194968003 
3.7687612854e-05 -6.9817493384e-06 5.534895042e-05 -0.00016078855472 -0.00010376278022 -4.869487673e-05 -3.9763449203e-06 3.73160146e-06 2.9273725608e-05 
0.00011713234152 -2.0180827925e-06 4.218736973e-05 7.4905923542e-05 3.5657105505e-06 -6.9171892156e-07 -0.00032554862466 1.2059251319e-05 -8.3183448003e-05 
3.309281992e-05 -0.00027369442224 -0.00017283283332 -0.00011915560329 -1.2350110388e-05 1.8170615704e-05 -4.4876637728e-05 -0.0002419698808 -0.00023883403209 
3.9181613491e-05 -9.961104327e-05 -4.5957829341e-05 0.00020375238829 -0.00015400425541 5.2944047582e-05 -0.00017236956073 -3.7444756016e-05 0.0002180245469 
-0.00019400563939 -0.00015989583568 -0.00023202246125 6.1619218837e-05 0.00011679360052 -0.00012901791591 -2.2554323224e-05 1.9965782464e-05 0.00013081762767 
0.0001644181261 -0.00024039513781 -1.8221407499e-05 0.00015570495459 5.4558089344e-05 0.00014929237245 -0.00035857321959 -3.1902218843e-05 -0.0002696399198 
-0.00013227269728 -4.3127116424e-05 0.00012481773959 -7.8535949667e-05 0.00012879184113 2.6957302395e-05 -0.00025330097658 -0.00018827545887 -0.00036956872496 
2.9086453587e-05 -5.6576219123e-05 -0.00017934047232 -0.00013322729185 0.00017785305469 -8.1487102287e-05 -1.2076505396e-05 -1.1194895733e-05 2.3593297593e-06 
-5.3744686453e-05 3.5150294583e-12 0.00021754223253 -0.00018999233184 8.5809548451e-05 -3.4834746342e-05 0.00010112933425 2.2558382842e-05 0.00039791796822 
9.1732165628e-05 7.5813732949e-06 -0.00012025153368 -4.3436044024e-06 5.9306908877e-05 -7.3371128568e-06 4.6480133192e-05 2.9434774369e-05 -9.5403529257e-06 
3.2309678019e-05 1.8203296818e-05 -3.675938602e-05 -3.6492829287e-05 -1.4288797786e-05 -1.3649508626e-05 -0.00023239870451 -5.8280560595e-05 -2.4697925361e-05 
2.893291295e-05 -9.6228545973e-06 0.00013819874499 0.00012414754014 -1.6096885607e-05 5.017095501e-05 -0.00018836980262 -6.4435069452e-06 0.00025266675806 
-9.9372486806e-05 -6.6119003136e-05 5.9420583879e-05 2.6795091487e-05 -4.5373743431e-05 -4.3064574185e-05 -8.1462662868e-05 0.00010410250117 6.5817892228e-05 
4.8869121142e-05 3.7060260356e-05 0.00016492850164 -1.0343850834e-05 1.5498918302e-06 7.3891712195e-05 -4.9838651076e-05 2.4014467752e-12 -0.00010956749742 
2.3290700272e-05 3.1357008094e-05 -3.1973442092e-05 -4.3685665975e-05 -7.4655410314e-06 -1.149170806e-05 2.1121744597e-05 -1.0233820272e-05 0.00012750242522 
7.123533941e-05 -1.0254823703e-05 -0.00024594441639 -6.889506027e-05 -5.3319438206e-05 -0.00012877621503 1.2080618922e-05 3.2219613075e-05 -3.5915704604e-05 
4.7588128875e-05 -1.1334291582e-05 -7.8873995961e-06 -5.6644251657e-05 -0.00023518661299 -4.663976063e-06 -0.00014742362868 -3.790919856e-05 8.7401664672e-05 
-6.4277419199e-05 2.5315282276e-05 3.010157314e-05 -4.255546909e-05 -1.143915945e-05 5.2901739929e-05 4.5964627699e-05 7.3265908173e-06 0.00011978401659 
-8.1212903007e-05 2.2327960841e-05 8.2827386908e-05 -0.00024636163669 -2.8218687731e-05 -2.493808708e-07 7.4028909941e-05 -3.0278000041e-06 7.5400243834e-05 
5.7924661314e-05 -2.6963262637e-05 4.0122498055e-05 -8.9361454731e-05 3.011841316e-05 -5.7642643917e-05 -2.7105390351e-05 3.5148627159e-05 7.193182834e-05 
-0.00019459434737 -2.6673184335e-06 4.3629939741e-06 -7.0606796461e-05 8.3843917154e-06 2.3648413169e-05 -0.00016706700224 -5.770808883e-05 0.00010319447133 
0.0001104310747 -0.00010238905969 -2.9842602425e-05 -0.0001537586947 -0.00015037637564 0.00017970361924 -5.8602360499e-06 -0.00037632800227 -0.0001575025422 
-0.00024315964186 -6.2095045214e-05 1.3004172263e-05 9.4054776178e-05 -3.134110024e-05 -6.9935134649e-05 -0.00037015046735 -1.4178972482e-05 0.00022427932523 
-0.00028932471756 6.2332143218e-05 9.944074445e-05 -8.7223420358e-06 6.8968038362e-06 -2.8053336948e-05 -3.8383412639e-05 -9.0025006528e-05 -0.00017911503461 
-0.00012918053174 7.3315817515e-06 6.1009852852e-05 -0.00010365865185 -0.00015049684175 5.9082039513e-05 -0.00023500342015 0.00011535274475 2.7544091283e-05 
-0.00025617180793 5.055819914e-05 0.00016897461906 -4.3619005169e-05 7.7736255571e-06 -2.6642524429e-05 -5.3760721018e-05 3.8573278718e-05 1.7276033387e-05 
-0.00017990105655 -0.00029035948535 -7.2459640494e-05 -0.00010055004771 -6.090367644e-05 5.1308931109e-05 7.3670906686e-06 -0.00018367566106 -1.5381403253e-05 
-8.7674794168e-05 6.9025113302e-06 2.8398763155e-05 -0.00033322742719 -0.00011252331548 -9.8979964874e-06 0.00012517129612 -5.7424952529e-05 -4.7660632369e-05 
7.9712612237e-05 -0.00021102357144 -0.00032355274309 -0.00020749173959 -0.00033385570558 -0.00026228862418 -0.00015028010765 -4.9231707068e-05 -2.4456785713e-05 
2.9907923724e-05 -4.1862559696e-05 -0.00030190617943 -0.00011126941305 1.8831008727e-12 4.9845776733e-05 3.2139582121e-05 -5.5798586717e-05 -0.00017864699243 
-7.2069894726e-06 0.00024306019671 -5.9215440537e-05 -0.00036771677755 -0.00014594077753 9.630591942e-05 3.0278917861e-05 -2.8746347273e-06 -0.00011296386004 
-0.0072848804881 -0.0092873887187 0.023455176263 -0.00017760780081 -0.00012538902533 -1.1230790756e-06 -9.7136295594e-05 -3.9290690226e-05 -1.7604223156e-05 
0.00021921310562 5.565308267e-05 -7.8943149268e-05 3.0434811767e-05 0.00010693800571 -6.9770663833e-05 -9.0633096779e-05 -3.1441484832e-06 -5.583448241e-05 