# vtk DataFile Version 4.1
vtk output
ASCII
DATASET UNSTRUCTURED_GRID
POINTS 1274 float
0.273693 -1.29445 -0.0532783 0.273743 -1.3022 0.0958747 0.279422 -1.29494 0.317506 
0.157834 -1.31609 -0.211085 0.298456 -1.29135 0.178137 0.411558 -1.23456 -0.0670534 
0.381426 -1.29109 0.322101 0.470059 -1.23549 0.493014 0.512129 -1.24367 -0.00806406 
0.637027 -1.25334 -0.00562806 0.53888 -1.34672 0.187567 0.641231 -1.22264 0.434253 
0.852399 -1.27258 -0.151215 0.843479 -1.25445 -0.0829378 0.657731 -1.29641 0.158058 
0.755445 -1.27585 0.265865 0.696151 -1.27027 0.21874 0.793841 -1.20792 -0.04488 
0.637064 -1.20757 -0.0560137 0.672389 -1.34643 0.00779458 0.715216 -1.19072 -0.0821823 
0.690722 -1.30817 0.278226 0.39101 -1.23456 0.281858 0.615216 -1.27212 0.224793 
0.912826 -1.23664 -0.0764813 0.301117 -1.2505 0.128391 0.657525 -1.20789 0.363646 
0.81409 -1.19497 -0.113158 0.921225 -1.31394 -0.000290652 0.822874 -1.22934 0.0380576 
0.971701 -1.20858 -0.0150249 0.656929 -1.22808 0.0466596 0.557566 -1.219 0.378499 
1.08239 -1.22286 -0.287857 1.03361 -1.24156 -0.141532 0.503978 -1.22137 0.280686 
0.789858 -1.27883 -0.0126124 0.634905 -1.27385 0.285655 0.405214 -1.25072 0.137806 
0.951858 -1.20272 0.0594407 0.85137 -1.2268 -0.208437 0.79809 -1.23314 0.160131 
0.838157 -1.21213 0.108836 0.748333 -1.22102 0.21599 0.903369 -1.24345 -0.00528038 
0.985283 -1.23827 -0.236482 0.891754 -1.25241 0.291576 0.886664 -1.21793 0.23025 
0.452212 -1.2993 -0.306749 0.167818 -1.33257 0.28078 0.145285 -1.35889 -0.0654368 
0.0370367 -1.33479 0.17368 0.286355 -1.34238 0.471607 0.255836 -1.33815 0.384997 
0.239847 -1.31337 0.164961 0.379597 -1.35341 0.285114 0.153356 -1.34834 -0.272873 
0.359443 -1.41001 0.0556504 0.611802 -1.28941 -0.213205 0.217783 -1.35346 -0.222106 
0.399527 -1.34728 -0.151315 0.371586 -1.35522 0.404652 0.399173 -1.29304 0.394596 
0.27811 -1.34831 0.208913 0.213405 -1.33836 0.0054767 0.485131 -1.26618 -0.187269 
0.413227 -1.3608 -0.0237429 0.583422 -1.34512 0.299884 0.433219 -1.28265 -0.142615 
0.304123 -1.28407 0.243111 0.55267 -1.36025 -0.019429 0.37665 -1.2737 0.194414 
0.33141 -1.29838 0.0617602 0.330519 -1.26192 0.445493 0.508649 -1.22747 -0.0834292 
0.62348 -1.4128 0.0996319 0.544032 -1.25119 -0.24067 0.212459 -1.28188 -0.175331 
0.568427 -1.35598 0.0415498 0.541491 -1.30129 -0.0340562 0.327984 -1.26216 0.297812 
0.451334 -1.28845 0.450295 0.579782 -1.33504 0.469943 0.446529 -1.28096 0.264224 
0.511102 -1.29952 0.290998 0.45193 -1.36112 0.112122 0.615765 -1.3037 -0.0477546 
0.643838 -1.22736 -0.214023 0.972698 -1.28514 -0.284521 0.570406 -1.28637 0.17225 
0.47509 -1.28635 -0.250619 0.764584 -1.28925 0.343915 0.645515 -1.32734 0.220663 
0.577102 -1.23879 -0.053835 0.999448 -1.26673 -0.0443941 0.741694 -1.25466 -0.0609871 
0.684797 -1.29043 0.0494339 0.876515 -1.34919 0.162057 0.603167 -1.25473 0.0797432 
0.78027 -1.23223 0.388039 0.790758 -1.24157 0.464738 0.545534 -1.2631 0.232815 
0.826026 -1.35951 0.20775 0.622012 -1.22515 -0.144794 0.687872 -1.23262 -0.0331272 
0.553125 -1.24078 0.123761 0.732415 -1.23673 0.0212319 0.808452 -1.30048 0.177976 
0.828889 -1.25047 0.340781 0.681253 -1.26711 0.329812 0.809221 -1.22666 0.532537 
0.912625 -1.24743 -0.369663 0.769587 -1.3099 0.0489831 0.437649 -1.25603 0.192622 
0.723892 -1.22675 0.535002 1.16354 -1.22118 0.0117444 0.628929 -1.26636 0.530088 
0.734239 -1.22571 0.317632 0.704901 -1.24511 0.415677 0.578906 -1.24341 0.0153643 
0.958729 -1.29277 0.2194 1.10573 -1.23871 -0.167149 0.838952 -1.3053 0.0441916 
0.976898 -1.22608 -0.0923458 0.908267 -1.28983 0.0617954 0.616291 -1.23687 0.147447 
1.32158 -1.19722 0.526078 0.738713 -1.25646 0.160998 0.940151 -1.22531 0.193875 
0.952268 -1.20835 0.423019 1.21196 -1.26354 -0.182841 0.905094 -1.23206 0.0977363 
1.04504 -1.22591 -0.00802934 0.863864 -1.23345 0.171977 1.10049 -1.25829 -0.032287 
0.963343 -1.26299 0.0318224 0.0866801 -1.41341 -0.246631 0.285895 -1.36069 -0.213102 
0.430071 -1.40919 -0.397639 0.0351688 -1.35956 0.315489 0.213235 -1.32117 0.482542 
0.0966452 -1.40799 0.156647 0.216649 -1.34412 -0.402017 0.500589 -1.31856 -0.348256 
0.0870874 -1.35983 -0.381509 0.493686 -1.34762 0.459702 0.251028 -1.279 0.529061 
0.147157 -1.35435 0.379462 0.241048 -1.41179 0.297751 0.0966508 -1.35821 -0.0125845 
0.276967 -1.32008 -0.156579 0.080092 -1.35881 -0.288983 0.47219 -1.35384 0.309864 
0.348622 -1.40768 -0.0292542 0.129609 -1.34346 0.230536 0.213223 -1.33463 0.0981044 
0.2196 -1.29566 0.291461 0.320753 -1.29138 -0.29505 0.270944 -1.34801 0.0404339 
0.422466 -1.3183 0.166101 0.0825483 -1.29266 0.215254 0.515618 -1.3006 0.419017 
0.893206 -1.3002 0.533049 0.546952 -1.35566 0.420393 0.240788 -1.2949 0.228691 
0.318154 -1.35522 0.156991 0.318843 -1.35427 0.0926317 0.367225 -1.28846 -0.232382 
0.520264 -1.33286 -0.241394 0.492606 -1.2928 0.204065 0.548562 -1.22586 0.527673 
0.644565 -1.28731 0.408227 0.776865 -1.34078 0.462105 0.423719 -1.34426 0.22892 
0.676867 -1.41468 0.136498 0.590358 -1.222 -0.399396 0.601147 -1.35845 0.188479 
0.854216 -1.227 -0.316311 0.391155 -1.29514 -0.298442 0.828436 -1.29973 0.28379 
0.759105 -1.28958 0.419818 0.332791 -1.28447 -0.172115 0.571317 -1.27627 0.288722 
0.670141 -1.27259 -0.166646 0.490121 -1.24964 0.14539 0.879501 -1.29189 0.214263 
0.970371 -1.38757 0.0886808 0.535633 -1.28034 0.0564649 0.995016 -1.25522 0.443866 
0.648751 -1.3302 0.341086 0.941772 -1.29607 -0.0631353 0.673145 -1.2091 -0.27866 
0.725682 -1.22901 -0.145126 0.791309 -1.30417 -0.0806929 0.820877 -1.34983 -0.0454136 
0.739913 -1.31833 0.17805 0.702789 -1.35506 0.138476 0.859677 -1.2991 -0.0262894 
1.00887 -1.24926 0.0866546 1.06211 -1.27487 0.0386192 0.912299 -1.25101 -0.140173 
0.786909 -1.28878 0.114951 1.10919 -1.28479 0.394072 1.00431 -1.24677 0.188951 
0.818581 -1.24333 0.228999 0.698494 -1.25826 0.110984 0.931562 -1.36145 0.216448 
0.857258 -1.2851 0.118934 1.19584 -1.36097 0.117203 0.947516 -1.35378 0.143676 
1.12379 -1.25901 -0.0980198 1.02648 -1.26083 0.275326 0.763117 -1.2244 0.095152 
0.99308 -1.35403 0.196487 0.297586 -1.4153 -0.358849 0.199588 -1.37217 -0.327218 
0.0322035 -1.4135 -0.0345606 0.441367 -1.28069 0.531353 0.0339863 -1.41171 0.191291 
0.0880186 -1.32434 -0.107003 0.340226 -1.30686 -0.394473 0.0369043 -1.36213 0.0211638 
0.0326481 -1.34526 0.488305 0.346469 -1.40639 0.198487 0.151755 -1.41314 0.444416 
0.323954 -1.34691 0.532516 0.0881127 -1.39517 0.22731 0.326595 -1.35887 -0.26552 
0.218207 -1.35073 -0.129091 0.248301 -1.41429 -0.201662 0.124898 -1.3376 0.152991 
0.311943 -1.29152 0.502016 0.0915042 -1.33728 -0.219795 1.00552 -1.41418 0.472959 
0.234141 -1.40735 0.202619 0.218262 -1.34162 -0.060299 0.403442 -1.35846 -0.28232 
0.150971 -1.32353 -0.00109294 0.582367 -1.41374 0.215349 0.469038 -1.4131 0.144602 
0.452396 -1.28905 0.341044 0.273926 -1.35694 0.322748 0.194349 -1.36247 0.157599 
0.311556 -1.34571 0.270411 0.802465 -1.4127 -0.226481 0.190258 -1.38808 0.264682 
0.356555 -1.34235 -0.0620796 0.161684 -1.30576 -0.120815 0.394482 -1.41526 -0.141422 
0.293214 -1.35425 -0.0873706 0.465477 -1.33983 0.396046 0.479197 -1.25489 0.39489 
0.297902 -1.35989 -0.0221551 0.358527 -1.34946 0.0162618 0.80082 -1.29752 -0.212181 
0.378976 -1.36167 0.155172 0.336253 -1.3453 -0.179578 0.35264 -1.29995 0.131953 
0.37763 -1.29363 0.256158 0.34742 -1.33269 0.211636 0.526041 -1.23577 0.436685 
0.447897 -1.29512 0.108879 0.73481 -1.25919 -0.210328 1.05806 -1.367 -0.147672 
0.310302 -1.30423 0.00397336 0.443837 -1.30487 -0.0198077 0.836506 -1.41477 -0.140678 
0.613583 -1.36229 -0.0114242 0.650029 -1.36313 0.275158 0.501577 -1.35072 0.244416 
0.51839 -1.26064 0.345294 1.14795 -1.36797 0.38027 0.628717 -1.36885 -0.0745882 
1.12049 -1.28375 -0.219202 0.725223 -1.29673 -0.116418 0.853667 -1.32462 -0.107703 
0.686977 -1.36359 -0.0514803 0.746391 -1.34158 -0.00648293 0.897885 -1.35459 -0.0555708 
1.04999 -1.23609 0.467527 0.635935 -1.31483 0.0923129 0.841108 -1.41501 0.254104 
0.652704 -1.25796 -0.0945066 0.895578 -1.35378 0.0897922 1.09822 -1.31891 -0.00099362 
1.01076 -1.3111 0.00852181 0.813331 -1.37069 0.0466096 0.753512 -1.33955 0.101929 
0.695683 -1.29826 -0.0351868 1.05052 -1.3498 0.154979 0.854849 -1.41217 0.0913219 
1.18047 -1.23146 0.410085 0.994561 -1.29002 -0.106111 1.09762 -1.40835 0.172987 
0.963308 -1.37555 -0.0367193 0.971547 -1.3163 0.084982 0.859358 -1.20944 0.455531 
0.0341699 -1.37737 -0.227655 0.0314947 -1.41421 -0.173362 0.0354917 -1.41021 0.46789 
0.072432 -1.41424 0.307721 0.0839136 -1.37143 0.528368 0.0998835 -1.41553 0.479613 
0.0769876 -1.41064 -0.339144 0.166911 -1.39477 -0.39495 0.384435 -1.36054 -0.403686 
0.033625 -1.41208 -0.28589 0.051364 -1.41294 0.0665757 0.264825 -1.4091 0.47098 
0.0355964 -1.41055 0.363901 0.240156 -1.4087 0.370409 0.142722 -1.41182 0.52709 
0.301538 -1.3542 -0.332122 0.142918 -1.41429 -0.33147 0.145813 -1.41471 -0.269133 
0.640483 -1.41014 -0.320217 0.424305 -1.41293 -0.237068 0.115863 -1.41367 0.0604962 
0.097481 -1.34393 0.422109 0.392095 -1.33181 0.529311 0.109644 -1.35189 0.315549 
0.500969 -1.4062 0.400728 0.175043 -1.37138 0.0534198 0.310247 -1.40789 -0.168351 
0.292571 -1.41419 0.0897259 0.209838 -1.4094 -0.0930688 0.35524 -1.34887 0.469563 
0.316734 -1.32228 0.415514 0.291496 -1.40986 0.249617 0.713836 -1.35034 0.518635 
0.207198 -1.35181 0.332002 0.411041 -1.35008 0.349656 0.453629 -1.34855 -0.224235 
0.383536 -1.35579 -0.218953 0.0654887 -1.35875 0.109054 0.455355 -1.40706 -0.173035 
0.243247 -1.3527 0.267292 0.263646 -1.35817 0.128562 0.420576 -1.3538 0.45058 
0.336717 -1.32093 -0.12228 0.457309 -1.41043 0.0498856 0.624163 -1.28347 -0.378455 
0.523535 -1.29204 -0.290471 0.569914 -1.41475 0.0649325 0.518865 -1.28589 0.489562 
0.648229 -1.41098 0.225384 0.550432 -1.35132 -0.296655 0.456622 -1.41397 0.209144 
0.680607 -1.36145 0.394765 1.07275 -1.29132 -0.269901 0.463007 -1.28391 -0.0797531 
0.428007 -1.34143 -0.0860507 0.501923 -1.32635 0.0149037 0.438334 -1.34184 0.0377649 
0.529355 -1.33115 0.355559 0.571481 -1.28973 0.535691 0.942798 -1.25477 0.531367 
[...]
POINT_DATA 1274
FIELD FieldData 10
VELOCITY 3 1274 double
-6.2594786903e-05 -3.4267177721e-05 -5.0508295512e-05 -0.00022235717908 3.141722224e-05 2.2734126186e-05 -0.00016591383292 -4.5705857442e-05 0.00014317997376 
-6.554789191e-05 -2.6780725834e-05 0.00013127400585 -0.00010207600565 -4.3664262322e-05 1.1917572746e-05 -0.0001000883113 0.00010606509129 0.00012684178075 
-0.00024139412108 -3.3739676791e-05 1.6604509726e-05 -0.00029156429504 -2.3568901637e-06 -0.00014575726268 -2.4013496357e-05 1.6159945346e-05 -9.5405771685e-05 
5.7560220428e-05 -7.955880159e-05 -0.00011416254851 -0.00015005672729 3.5909404983e-05 -1.2472335746e-06 -0.0002032977916 -0.00026547277949 -8.4422975524e-05 
-9.6133172227e-06 -0.00013115514945 1.9303092303e-05 -0.00013542638674 -1.479599812e-05 -2.3777349812e-05 -4.8495767509e-05 -4.3560078969e-05 5.3049547593e-05 
-2.9865340325e-05 5.0903507593e-05 -1.0631008185e-05 -3.9612511631e-05 6.8066382395e-05 -4.2030601354e-05 -0.00022909533312 -0.00010485694551 -1.5372795586e-05 
-3.6955340273e-05 -0.0001489485707 -0.00025855792058 -8.9046762763e-05 0.00010484404116 5.297272722e-05 0.0002480640168 -9.6628094202e-05 -0.00011003627861 
6.2340362718e-05 -7.3306742917e-05 -0.00021871647761 -1.6081045595e-05 -2.5953856397e-05 8.7503065066e-05 -0.00013301868124 -4.9839788205e-05 0.00016586443242 
-0.00013210591153 -0.0001141674032 0.00022246409519 -0.00015055724547 -1.7761498093e-05 6.8552547479e-05 -6.0187397564e-05 -0.00012754604002 -5.7420001655e-06 
-0.0003162140704 -0.00010100527513 -4.0055258956e-05 -0.00012885793461 -6.7866844077e-05 8.381659133e-05 -0.00034377505918 -5.9602341532e-05 -6.7854702517e-05 
-0.00018211145913 -4.1951732718e-05 0.00021094553872 3.536967186e-05 4.7249464871e-05 -0.00016538540749 -0.00025792278703 -0.00016045581792 -1.2477557565e-05 
0.00012021008185 -0.00016376882664 8.5081967482e-05 0.00018947605715 1.1289251996e-05 -3.7593214364e-06 6.6225378029e-05 -0.00018332976952 1.4296437147e-05 
-0.00013612380671 -0.00017542236698 -0.0001645999512 -8.0532867609e-05 -0.00019776593684 -1.0413837245e-05 -3.3392522384e-05 -0.00015504072125 -7.6728790041e-05 
0.00044888213292 -0.00025762828649 0.00030388112007 -1.6249471106e-05 -0.00023023940986 -3.6420790878e-05 -1.1632643079e-05 3.7568358985e-05 -3.4798290443e-07 
-0.00012270082909 4.1896449559e-06 -0.00010751705622 0.00011042578907 -3.6291473426e-05 -0.00015414809539 -0.00019144325551 4.7695878013e-06 0.00027187881493 
0.00038811432914 -0.00017099189682 0.00018025114388 -5.3534094362e-05 -0.00014875676694 5.9854399641e-05 -0.00041567753767 -3.2441228463e-05 0.00018162651627 
-0.00019003758044 -5.2424860889e-05 -3.5563693886e-05 -5.0889934647e-05 -6.565284456e-05 -3.06383445e-05 -6.6060198565e-10 -7.6364585693e-05 -2.6271914688e-05 
9.3724474226e-06 -0.00034793955063 0.00010445975875 -0.00018756244659 -4.9173803678e-05 -6.962146067e-05 -0.00014379324954 0.00010045780731 2.5632341685e-05 
-9.4674081468e-05 -6.4536606088e-05 0.00016194346445 -0.00010309346696 -2.3633685131e-05 -6.420973903e-05 6.5655149075e-05 -6.8962855705e-06 6.3653460417e-05 
7.4860051375e-06 2.1739838221e-06 1.3989897041e-05 -9.0889273632e-05 8.7637232973e-05 3.7879589875e-05 -7.8106260636e-05 5.018772125e-06 0.00012492194632 
-9.6492198802e-05 5.3171784598e-06 9.8626796865e-05 -0.00019814000834 -0.00014041179004 -3.5498618136e-05 -0.0003431545927 -4.8064204515e-05 1.4705465325e-05 
-9.4299331443e-06 -6.7685475341e-05 9.1348301807e-05 -0.00011977657863 -0.00021016931504 0.00011991211464 -0.00010357044017 -0.00013952487495 -2.1606995676e-05 
-0.00023249154053 3.7309411271e-05 1.3088576755e-05 -5.7588144869e-05 4.7998985227e-05 8.4211323344e-05 -0.00014262205793 4.1019022284e-05 2.226269993e-05 
-8.1294486774e-05 -4.6081982228e-05 2.2688850199e-05 -0.00012099832642 7.2441039618e-05 0.00014011463082 -0.00016684474265 -2.0995919739e-05 -4.9709102168e-05 
-3.3781576039e-06 -4.4487172953e-05 -1.49166955e-05 -0.00018131333587 5.7333927768e-05 -2.0061656259e-05 3.7869598934e-05 -0.00011506230272 -0.00017723372697 
-9.1212338849e-05 3.9063375939e-05 0.00013038717768 -0.00018938833379 -9.4991976516e-05 9.0465065486e-05 1.4150560093e-05 -3.2998730814e-05 1.6560148993e-05 
4.5091367487e-05 3.899579258e-05 0.00014799495724 0.00016695276014 4.3667680019e-05 5.5059946714e-05 -0.00025689455837 3.3438443188e-05 9.6800076687e-05 
-0.00028389729751 -0.00010442810775 -8.4177918476e-05 -0.00025608611489 -0.00014273233376 0.00011796068757 -3.111392642e-05 -7.5156323553e-05 4.2912925438e-05 
-3.1654003998e-05 -0.00021268548217 -0.00010982778854 -7.5032457951e-05 -9.2662679918e-05 -0.00013037486399 0.00021123919804 -0.00017206761221 -9.5741657303e-05 
0.00013766660528 -0.0001079627364 -3.283934993e-05 0.00013024790422 -9.0740021565e-05 0.0001712162083 0.00012958841928 -0.00019827517232 -3.3385484806e-05 
-0.00021448358629 4.1795038251e-05 -3.5531280987e-05 -0.00010360592963 -2.7516211595e-05 -2.2491449027e-05 -0.00011871566857 -6.9561680065e-06 -2.884710025e-05 
3.4564265136e-05 -0.00030833761394 -0.00020840509777 8.1727696264e-06 4.3362909391e-05 0.00015126703903 -4.6564202052e-05 -0.00025921397586 -0.00024415189167 
-1.1480330203e-05 6.3821898617e-05 -3.6299507262e-05 0.0001820043255 -5.9490485341e-05 0.00015338324075 6.3259512359e-05 -2.4553783637e-05 -0.0001362079463 
-9.618873318e-05 -9.5411176806e-06 -1.0038295844e-05 -0.00029584678681 3.8531157855e-05 4.9766309389e-05 2.2520938703e-06 -2.5375620101e-05 -0.00017997672866 
-0.00025059270684 0.00011595540275 7.4858097787e-05 -8.9031176776e-05 -0.00022748513163 -5.385912669e-05 -9.9799229278e-06 -7.3442664091e-05 -0.00023340858019 
1.4222814755e-05 -0.00033499296187 -0.00015226792709 -4.0752667989e-05 1.5955045944e-05 -0.00020626653915 -9.2856039254e-06 1.8527901195e-05 -0.00014607316747 
-3.3378561129e-05 -0.0002518171542 9.349703657e-05 -4.311465453e-05 -9.1078617403e-06 -0.00018065741215 -0.00011979428269 -6.3759174475e-07 8.1145377577e-06 
6.2364415082e-05 -6.3112908531e-05 0.00011337506063 -0.00011348016561 -0.00032092923115 7.4666635162e-05 -0.0001798685698 -8.6695820176e-05 3.3783945389e-05 
1.1051682038e-05 -6.5508883021e-07 9.28232647e-07 5.7226042475e-05 -0.00012853765125 -0.00018640729813 -7.5444996982e-05 -0.00012141308588 -2.7983649088e-06 
-1.9387905686e-05 2.5515633961e-05 -1.9455792955e-05 -4.5230012022e-05 9.3459386801e-05 2.1968848338e-05 -6.9625833497e-06 -0.00026425887254 -0.00019348146797 
8.32969034e-05 -0.00038585335264 -0.00021712606055 0.00013426595883 4.1074070001e-05 -0.00019157609118 -0.0002251324328 -4.3591833207e-05 -2.7307233217e-05 
-0.00015343295124 -0.00010768173484 0.00012646647856 -0.00010654537375 4.4386529883e-06 5.3125763975e-05 -9.6157000083e-05 -2.5286918372e-05 -0.00013909089384 
-2.9481749036e-05 -4.7324374512e-05 -0.00011504663009 5.7757940522e-05 -6.3940372866e-05 -0.00015733536258 -0.00032616970691 -0.0002394490587 0.00038501872807 
-0.00040482871532 -0.00017853159033 4.6250880845e-05 0.00014334738943 -0.00024674392559 -0.00023438309267 -0.00012490193998 7.7913310344e-05 -0.00011571136262 
-0.00015365030697 -0.00014701657164 -8.0427285447e-05 1.6144616115e-05 -3.175520121e-05 -1.8368614007e-05 -0.00035738389955 -0.00018306805063 -0.00036599048547 
-6.9313587283e-05 -0.00021819257357 2.0676394683e-06 -2.0525318558e-05 -1.1073144445e-05 2.1013695869e-05 -4.3052439562e-05 0.00014077378718 -0.00016913484231 
3.7897764628e-05 4.8859722917e-06 7.6792326777e-06 -1.2901260065e-05 3.3602858806e-06 0.00015806787336 -3.2294220279e-05 -6.1558757968e-05 -4.0335510975e-05 
-2.4312891538e-05 3.7825911768e-05 -0.00012304888025 1.9788953458e-05 2.1938400485e-05 -4.1666459857e-06 -0.00021787234717 6.5306743578e-05 -2.6927430655e-05 
-5.6144309242e-06 1.2192298725e-05 -1.2009802281e-05 2.3086150669e-05 4.5820071154e-05 -5.3724175312e-05 -5.9207169439e-05 -3.9501426982e-05 -7.9845066776e-06 
0.000100964073 9.704019546e-06 6.3367528614e-05 -4.4368258278e-05 -8.9748903067e-06 8.31618441e-06 -6.2531193541e-05 -1.5887605523e-05 -7.743289863e-05 
-5.6020232468e-05 -0.00016105265308 -2.4254250711e-05 -1.6901489986e-05 2.3883816904e-05 -3.9272520646e-05 -0.00023161823557 -2.1344712026e-05 -3.9579361849e-05 
-0.00013114851878 0.000184024877 0.00013350952615 -0.00011036844442 6.907780748e-05 5.94561354e-08 -9.2689548225e-05 -7.9242930418e-05 -4.9836609343e-05 
-0.00010483922779 -4.0101371563e-06 1.1562266529e-05 -0.00019079430286 -4.3143608021e-06 6.5146778931e-05 5.4459778702e-05 -4.1765091599e-05 7.1630161303e-06 
-3.4855264566e-05 2.1449185609e-05 -7.6980544445e-05 -0.00017347870678 -2.7525632654e-05 -2.9289485951e-05 9.2363140363e-05 -0.00026874312568 -0.00035344631405 
-0.00011862129945 4.4024512918e-06 0.00013060383533 0.00015718408116 -0.00013170909715 -6.0263855394e-05 -0.00011217018363 -2.5191449386e-05 3.7332637236e-05 
-8.1188862707e-05 4.4377085068e-05 3.0008370773e-06 -0.00011594101999 5.6331072009e-05 0.00011091528765 -0.00013831830329 -8.7579858706e-05 1.7953144706e-05 
-9.5931597102e-06 -5.3967171848e-05 -2.5247110876e-06 -0.00010108095831 -6.7004471129e-06 7.0310253552e-05 -4.2640813372e-05 -5.7914996843e-05 2.2972176335e-07 
-0.00011766530429 4.2853842312e-05 -5.9610968906e-05 -0.00020703680982 0.00017221166602 0.00025101528065 -0.00030612931424 8.8661261808e-05 -0.00010303357387 
-0.00012577610151 -9.2521080314e-06 2.5295389308e-05 -0.03679093592 -0.010416969142 1.6988706365e-06 -0.00012810275492 2.4396307768e-05 -4.2201631754e-06 
0.00023719361383 -0.0001725496062 0.0001741633774 -0.00020289820292 -2.1494066109e-05 -3.7687333765e-05 -8.8559014478e-05 -8.7141654068e-05 4.325274146e-05 
-0.00010249808349 3.5309139122e-05 -9.7724639191e-05 -0.00012257267756 -6.2648621837e-05 -1.4269871406e-05 -0.00013040122147 -7.4256634782e-05 -9.1886692727e-05 
-3.6115981513e-05 -0.00020042556901 1.9960290039e-05 4.2861009778e-05 -0.00010292481651 1.8083741924e-05 4.6260299518e-05 5.7233754381e-05 6.7346609759e-05 
-7.7251656447e-05 0.00016852983257 4.2041190189e-05 4.7371332262e-06 -3.7667325306e-05 5.406728352e-05 0.00033395039526 -0.00031455486547 -0.00013662882188 
-2.9407552748e-07 -1.5349477556e-05 1.9815975555e-05 4.1752120214e-05 -5.127437496e-05 0.00015631027152 -0.015183315656 -0.019225488247 -0.068295691198 
-4.8908919904e-05 -8.3609649199e-05 -0.0001572971016 -9.1694441846e-05 -4.0540207431e-05 -5.8555487575e-05 0.00012258834822 -6.0147406456e-05 -0.00018421943277 
-1.9561600114e-05 -6.0430934444e-05 -7.005774368e-05 -0.00026800617062 -8.8967003346e-05 6.6218425687e-05 -4.3069866819e-05 4.4896449249e-06 0.00011383701005 
8.5338908312e-05 -2.4454883939e-05 -0.00017092815893 8.6274785935e-05 -0.00011047866477 -8.146018689e-05 -7.8849647666e-05 -6.1169007301e-05 0.00023664429048 
-5.9387073704e-05 -0.0001138103926 -0.00013562866712 -0.00024530501886 -0.00056297347212 -0.00052565080659 -8.7157223444e-05 -1.9839380559e-05 0.00013210440323 
4.8148059717e-05 -0.00011149338661 -1.5099542565e-05 -0.0001395454309 -2.8785830247e-05 2.2561425886e-05 -0.00030968148455 -0.00024397080634 -0.00040231796289 
-2.8607337456e-06 -1.0248257436e-05 -0.00016505203948 -6.6274374857e-05 -9.1640186126e-05 9.6878927851e-05 0.00015575090165 0.00013368180135 0.00015603687635 
4.7939082182e-05 -0.00017578385522 -0.00023404301117 -1.5462428741e-05 -0.00013409353276 7.6285481339e-05 -0.00010504959676 -0.0001494142091 -0.00016351300603 
-0.00020121082867 -0.00065584616931 -0.00024824614576 -0.00016284719728 0.00016844859348 -5.3315055984e-06 2.5211861633e-06 4.7037570199e-05 1.6531616895e-05 
8.7366095987e-06 -1.7572513235e-05 -6.2128502329e-05 -7.9711943566e-05 -3.6174709594e-06 -2.0566401442e-05 2.3324066926e-05 -0.0002488197293 0.0001738450752 
4.502605353e-05 -0.00017185051434 -6.2227175056e-05 1.746707616e-05 -1.0608927797e-05 -6.4404340046e-06 1.7588096693e-05 9.9217452663e-06 5.8569909469e-05 
-5.9291487263e-06 5.5593649663e-05 -0.00016792027815 -9.4989776952e-05 -3.869719211e-06 1.3694367128e-06 -0.0002869079602 0.00013808327459 -0.00022825076166 
-9.8132575739e-05 -2.1073237189e-05 2.9544528507e-05 -2.271940063e-05 5.0228714389e-05 2.5330546246e-05 -3.31350228e-06 -5.3763309284e-06 -3.2309602986e-05 
-3.7506264919e-05 -9.2617726176e-05 9.0417538761e-05 -0.00061799765894 7.3975390356e-12 0.00080473983805 -0.00017067432578 5.4019689344e-05 3.5746800147e-05 
-6.8863234834e-05 -5.3264970031e-05 -5.4164256464e-05 -8.6200025564e-05 0.00015902161188 -6.8944572286e-05 -0.00011085368713 -1.122307256e-06 1.4956369377e-05 
-0.00014066716445 1.7479217056e-05 -7.5355504749e-05 9.8734705041e-05 -0.00017215763671 0.00011549742606 8.8346330929e-05 2.7668633772e-05 3.9616846716e-05 
-6.2251221576e-05 -0.00010126288353 -1.2218775669e-05 -1.5719972608e-05 1.8884389598e-05 0.00013430539704 -0.00012169220228 3.5176914523e-05 4.6700911374e-05 
-0.00027725789804 -2.8559563089e-05 4.7390763875e-05 -0.00015343430604 -5.6631414526e-05 2.0433855756e-05 -0.0001761002112 1.9910246754e-05 -2.1058408968e-05 
-0.00012381621899 -3.519728161e-05 4.9078336574e-05 2.1682812521e-05 -2.8119431902e-05 -0.00017492885646 3.1171674715e-05 -0.00016764621549 5.8515143164e-06 
0.00015085523517 -5.6384509266e-05 -8.0708519031e-05 1.0806469996e-05 1.5913787216e-05 7.1348802431e-05 0.00014815405057 3.6492572347e-05 0.00031743262138 
2.0831985677e-05 -4.3528666357e-05 1.9221190794e-05 -0.00018935550581 -5.3827677514e-05 -7.5440992151e-05 -0.00012319471107 -7.6834401651e-05 3.4465445524e-05 
-9.4666675093e-05 -2.2643342079e-05 1.6457795675e-05 -0.00017621576825 -3.8018810664e-05 -1.9522534144e-05 0.00015054443216 -0.00022086544642 -0.00010266960899 
-6.3987125468e-05 4.1206445477e-06 -1.8054414591e-05 3.7358620655e-05 -0.00017152081094 0.00017887885462 -0.00013068740276 -3.2239949607e-05 -3.9446467447e-05 
-9.9881956925e-05 2.5460875882e-05 2.4891947845e-05 -7.5985636235e-05 -2.054994551e-05 3.1454839416e-05 -0.00011673452472 -0.00014938139451 5.4229568093e-05 
-3.6887916658e-05 -1.5517511511e-05 -4.0535053065e-05 9.0258434176e-05 -0.00026668528913 -5.7793575351e-05 -8.1449283754e-06 -4.6733930452e-05 8.3578389374e-05 
-0.00019430900103 2.0136326907e-06 5.0710249399e-05 -0.00024493235878 2.842548299e-05 -2.0043378992e-05 -4.6765395999e-05 -9.4320170255e-06 5.2532286084e-05 
-2.5558273998e-05 -9.2556525736e-05 -0.00017202233218 -2.9544752012e-05 -0.00011691191729 0.00013829059251 -0.00018963611505 -7.8265416042e-05 8.8796408754e-06 
-0.00013087851843 -0.00025609921121 -2.4862815286e-06 7.6223125667e-05 -9.4632234127e-06 4.2931749206e-05 3.9734849891e-05 -0.00014922588936 -0.00016760923465 
6.789972817e-05 -0.00015202333101 -9.0583015317e-05 3.269804046e-05 -0.00016163647619 -0.00035611044499 -0.00014460728625 -5.6876643697e-05 0.00012496427671 
8.6389574651e-05 5.1633234418e-05 1.9434925612e-06 -0.00029163745154 -1.9028644885e-05 3.7209276751e-05 -2.1466381292e-05 2.4006963714e-06 2.6182421082e-05 
0.00013354936124 -2.4471752472e-05 8.4276473605e-05 5.6505531158e-05 7.3117503452e-06 -5.723526165e-05 -0.00032221565823 1.0164391138e-05 -7.0021243092e-05 
8.0146594278e-05 -0.00020591675251 -0.00012681442281 -0.00011178145361 -1.3925061996e-05 2.4917956317e-05 -6.2068369335e-05 -0.00025733511176 -0.00025629271983 
1.8619299678e-05 -9.2438305897e-05 -2.6517502462e-05 0.00014534119805 -0.00011315253911 4.2456366484e-05 -0.00017612236942 -4.8338919936e-05 0.00026065194335 
-0.00018400637473 -0.00012948551462 -0.00018187674443 1.8271470393e-05 0.00013283011081 -0.00010888247361 -1.1785559147e-05 1.2134139695e-05 0.00017912566598 
0.00020767994926 -0.00024335874262 5.1767190833e-06 7.8681005373e-05 -8.5203230995e-05 0.00018931699126 -0.00041237468718 -4.0974811313e-05 -0.00028056044688 
-0.00014274880006 -4.3131967095e-05 0.00010421109091 -0.00010544751104 0.00010863453446 1.7463152943e-06 -0.00025989471515 -0.0001676886263 -0.00036839227423 
1.1595290972e-05 -4.6340929153e-05 -0.00018973429165 -0.0001393239812 0.0001728112945 -6.4407899002e-05 -1.4680628234e-05 -3.1058126873e-06 -2.6170970297e-06 
-5.3744686453e-05 3.5150294707e-12 0.00021754223253 -0.00018756491514 8.9941058246e-05 -3.5345574774e-05 0.00012730958356 2.5952112279e-05 0.00039523829088 
8.5877955601e-05 2.9802509694e-05 -0.00010251189764 -1.1652832164e-05 5.659723034e-05 1.4408984216e-05 2.9341152276e-05 3.4316183156e-05 1.3455202365e-05 
3.4723741465e-05 -2.1051110432e-06 -4.1643346028e-05 -4.4844056806e-05 -1.3703042803e-05 -9.2616679425e-06 -0.0001909185647 -2.7969702087e-05 -3.8220725289e-05 
3.4505213054e-05 -1.3958999571e-06 0.00013529384763 0.00014850641385 -1.0754776062e-05 0.00010061031365 -0.00018997008263 -5.4367392258e-06 0.00024858424929 
-0.00011898001397 -5.1099486208e-05 8.7602937501e-05 1.7498648602e-05 -7.6806896157e-05 -2.1934314218e-05 -0.00011856466195 0.00011636398443 3.7582691062e-05 
-0.00012732430814 -6.3806470378e-06 -2.0180537869e-05 7.484398454e-06 1.0920820728e-05 -5.3258490782e-05 -0.00011898598655 2.4014470628e-12 -0.00011503410502 
8.0746489793e-06 2.6798001106e-05 -2.7150314022e-05 -8.7249957766e-05 -2.5014239163e-06 -1.7881512573e-05 2.1619129219e-05 -1.2055651814e-05 0.0001311152709 
5.2207054933e-05 -5.3212980963e-06 -0.00023714744016 -2.8737741441e-05 -3.5839505649e-05 -0.00013044761043 1.3793427709e-05 -4.2478561044e-07 1.7769966908e-05 
7.700635035e-05 -1.8561423984e-05 -1.7701318768e-05 -5.5799590647e-05 -0.00020966168309 1.4151556505e-05 -0.0001778406303 -2.7299178939e-05 8.6062779931e-05 
-8.5780932018e-05 2.7200623452e-05 2.0683996719e-05 -6.3307373485e-05 -1.8632504279e-05 5.6911470226e-05 0.00010430768982 2.9348897796e-05 0.00011324484235 
-8.5569459529e-05 2.4286215423e-05 5.9669024621e-05 -0.00025283676939 -2.9891936082e-05 1.5765570203e-06 -6.628739643e-06 -9.2373581879e-06 4.6608421409e-05 
-0.0001494257331 -1.2773512012e-05 -0.00016080485348 -7.8453874681e-05 2.6919948979e-05 -6.3857067651e-05 -1.7459957991e-05 -4.8711675999e-05 -4.4753943556e-05 
-0.00014000584559 -2.1180972612e-05 -2.9578570025e-05 -4.4677784548e-05 -1.8501281063e-07 1.6663851397e-05 -0.00018420959598 -7.7919148931e-05 0.00010198595222 
-7.4892788265e-05 -7.4427863869e-06 2.6661044504e-06 -0.0001616335131 -0.00016649007626 0.00017600009857 -0.039568028911 -0.029001003807 -0.050049480294 
-0.00019686813362 -7.3170689319e-06 6.0820831853e-06 4.6210093906e-05 -6.6753937501e-05 -4.2074228582e-05 -0.00030826675513 -9.0196276201e-06 0.00016031249472 
-0.0002924285751 5.4639533094e-05 9.1594731548e-05 -7.9511013366e-05 0.00010971400103 -0.00013435974744 -4.4995400765e-05 -5.2554651157e-05 -6.9155402177e-05 
-0.0001706251728 5.29994178e-05 9.8601081133e-05 -6.407012421e-05 -0.00013838185867 2.490643742e-05 -0.00025676596098 0.0001001117637 -1.636898397e-05 
-0.00024315099704 5.9404241616e-05 0.00016013869945 -5.3746469585e-05 2.3108274148e-05 -3.4547159094e-05 -4.1417433339e-06 1.3423310263e-05 -3.6060028104e-05 
-0.00017530365806 -0.0002780337619 2.7540379827e-06 -0.00010818351029 -5.7359627984e-05 5.4154906547e-05 -1.5197575569e-05 -0.00017740619539 -7.9569631044e-06 
-0.00010869991189 2.8857983078e-06 3.1961592205e-05 -0.00016928469634 -0.00015019692979 5.53565469e-05 4.9720208513e-05 -2.0695281903e-05 -3.844978182e-05 
6.7350862544e-05 -0.00016034729637 -0.00029623432582 -0.0002271278166 -0.00019248360738 -0.00028123212923 -0.00013804913052 -0.00012711951226 2.1426879173e-05 
-2.267770098e-05 4.6269041558e-05 -0.00010519195255 -0.00011126941305 1.8831013802e-12 4.9845776732e-05 5.7648526468e-05 -8.8676916497e-05 -0.00018538131139 
-2.7712601346e-05 0.00022955354689 -5.4299669445e-05 -0.00036376547483 -0.0001421005388 0.00011948461333 -2.5169546606e-05 8.8163915541e-06 -0.00011959898164 
-0.00010160825878 -4.2930455418e-05 0.00019179248074 -2.2741533414e-05 -5.9624708448e-05 -1.8358980678e-05 -0.00011289430714 -3.299352861e-05 -3.508814929e-05 
0.00020626733383 4.613648989e-05 -0.00010264201642 7.2625331207e-05 9.5674098491e-05 -3.8787820842e-05 -9.6118939551e-05 -1.2047530199e-05 -4.8458035094e-05 