# vtk DataFile Version 4.1
vtk output
ASCII
DATASET UNSTRUCTURED_GRID
POINTS 1274 float
0.273688 -1.29446 -0.0533429 0.273616 -1.30218 0.0959077 0.279322 -1.29496 0.317596 
0.157814 -1.31607 -0.21103 0.298405 -1.29137 0.178176 0.411474 -1.23449 -0.0669464 
0.381289 -1.29111 0.322114 0.469898 -1.23548 0.49293 0.512113 -1.24363 -0.00816967 
0.637045 -1.2534 -0.00570917 0.538803 -1.3467 0.187561 0.641111 -1.22279 0.434204 
0.852389 -1.27265 -0.151193 0.843403 -1.25444 -0.0829437 0.657658 -1.29639 0.158091 
0.755453 -1.27582 0.265841 0.696169 -1.27023 0.218704 0.793662 -1.208 -0.0449203 
0.637042 -1.20769 -0.0561582 0.672363 -1.34643 0.00780712 0.715407 -1.19079 -0.0822034 
0.690742 -1.30819 0.278153 0.391027 -1.23457 0.281914 0.615146 -1.27214 0.224817 
0.912751 -1.2367 -0.0763427 0.301012 -1.2505 0.128436 0.657498 -1.20796 0.363636 
0.813917 -1.19503 -0.113193 0.921181 -1.31396 -0.000250946 0.82265 -1.22938 0.0380277 
0.971603 -1.2086 -0.0149005 0.656926 -1.22805 0.046545 0.557443 -1.2191 0.378502 
1.08241 -1.22298 -0.287907 1.03372 -1.24153 -0.141545 0.504025 -1.22146 0.280699 
0.789784 -1.27893 -0.0126853 0.634872 -1.27397 0.285646 0.405175 -1.25079 0.137761 
0.952109 -1.20287 0.0596095 0.85131 -1.22705 -0.208431 0.798078 -1.23312 0.160135 
0.838066 -1.21214 0.108768 0.748407 -1.22104 0.215907 0.903267 -1.24345 -0.0050927 
0.985394 -1.23837 -0.236418 0.891718 -1.25247 0.291632 0.88641 -1.21796 0.23035 
0.451864 -1.29941 -0.306769 0.167786 -1.33262 0.28077 0.145318 -1.35894 -0.0654416 
0.0370367 -1.33499 0.173744 0.286254 -1.34237 0.471565 0.255789 -1.33813 0.385017 
0.239796 -1.31342 0.165052 0.379551 -1.35342 0.285076 0.153426 -1.34835 -0.272812 
0.359486 -1.41001 0.0556775 0.611706 -1.2894 -0.213174 0.217754 -1.35347 -0.222001 
0.399462 -1.34728 -0.151233 0.371508 -1.35528 0.404705 0.398998 -1.29306 0.394596 
0.278053 -1.34832 0.208953 0.213326 -1.33853 0.00556785 0.48503 -1.2663 -0.187317 
0.413098 -1.3608 -0.023716 0.583378 -1.34513 0.299898 0.433115 -1.28262 -0.142612 
0.304053 -1.28409 0.243151 0.552639 -1.36022 -0.0193041 0.376566 -1.27372 0.194391 
0.331403 -1.29842 0.0617334 0.330411 -1.26187 0.445483 0.508653 -1.22754 -0.0834847 
0.623456 -1.4128 0.0996626 0.543751 -1.25128 -0.240615 0.212481 -1.28192 -0.175292 
0.568451 -1.35595 0.0416598 0.541654 -1.30124 -0.0339893 0.327845 -1.26214 0.297869 
0.451181 -1.2885 0.450278 0.579738 -1.33508 0.469957 0.446517 -1.281 0.264251 
0.511104 -1.29964 0.290932 0.451866 -1.36116 0.112104 0.615906 -1.3038 -0.0478529 
0.643923 -1.22745 -0.214004 0.972738 -1.28523 -0.284454 0.570441 -1.28648 0.172209 
0.474765 -1.28627 -0.250692 0.764545 -1.28925 0.343902 0.645452 -1.32735 0.220656 
0.577114 -1.23896 -0.0539504 0.999432 -1.2667 -0.0442945 0.741674 -1.25487 -0.0611681 
0.684789 -1.29041 0.0494047 0.876618 -1.34921 0.162144 0.603192 -1.25474 0.0796416 
0.780222 -1.23222 0.388023 0.790587 -1.24154 0.464762 0.54555 -1.26312 0.232731 
0.825968 -1.35954 0.207658 0.621964 -1.22532 -0.144844 0.687866 -1.23269 -0.0332603 
0.553115 -1.24096 0.12367 0.732389 -1.23673 0.0211199 0.808429 -1.30048 0.177914 
0.828867 -1.2506 0.34084 0.68126 -1.26713 0.329738 0.809163 -1.22666 0.532537 
0.912664 -1.24749 -0.369582 0.769523 -1.31009 0.049018 0.437573 -1.25607 0.192602 
0.723891 -1.22675 0.535002 1.16359 -1.22126 0.0116456 0.628897 -1.26641 0.530068 
0.734231 -1.22569 0.317612 0.704872 -1.24505 0.41568 0.578894 -1.24357 0.0152502 
0.958767 -1.29299 0.219271 1.10579 -1.23869 -0.167242 0.838872 -1.30532 0.0441641 
0.976805 -1.22613 -0.0922771 0.908172 -1.28983 0.06182 0.616209 -1.23688 0.147367 
1.32158 -1.19724 0.526035 0.73872 -1.25649 0.160933 0.939957 -1.22545 0.194087 
0.952051 -1.20845 0.423044 1.21204 -1.26366 -0.182954 0.905027 -1.232 0.0976681 
1.04494 -1.22601 -0.00806955 0.863898 -1.23348 0.171969 1.10034 -1.25838 -0.0324608 
0.963305 -1.26312 0.0318383 0.0866579 -1.41341 -0.246675 0.28589 -1.36066 -0.213148 
0.430076 -1.40919 -0.397639 0.0351688 -1.35954 0.315597 0.213217 -1.3212 0.482541 
0.0966131 -1.40799 0.1566 0.216662 -1.34411 -0.402017 0.50031 -1.31852 -0.348267 
0.0870816 -1.35982 -0.38153 0.493634 -1.34761 0.459651 0.250999 -1.27902 0.529061 
0.147219 -1.35436 0.379504 0.24101 -1.41179 0.297784 0.0966135 -1.35824 -0.0126537 
0.276942 -1.32017 -0.156496 0.0800793 -1.3588 -0.289013 0.472033 -1.35384 0.309847 
0.348581 -1.40768 -0.0292252 0.129584 -1.34343 0.230504 0.213169 -1.33467 0.0980717 
0.219526 -1.29567 0.291491 0.320422 -1.29145 -0.294912 0.270922 -1.34801 0.0404763 
0.422398 -1.31827 0.166067 0.0824582 -1.29268 0.215247 0.515741 -1.30068 0.418952 
0.893127 -1.30022 0.533049 0.54704 -1.35577 0.420345 0.24072 -1.29492 0.228722 
0.318104 -1.35522 0.157036 0.318817 -1.35427 0.0926769 0.366986 -1.28851 -0.232313 
0.520291 -1.333 -0.241334 0.492541 -1.2928 0.204117 0.548568 -1.22589 0.527673 
0.644508 -1.28726 0.408202 0.776756 -1.34073 0.462273 0.423621 -1.34423 0.228885 
0.6768 -1.41468 0.136507 0.589174 -1.22276 -0.399396 0.60107 -1.35843 0.188462 
0.854233 -1.22711 -0.316173 0.390822 -1.29517 -0.298409 0.828407 -1.2998 0.283797 
0.759033 -1.28957 0.419794 0.332658 -1.28437 -0.171996 0.571279 -1.27629 0.28866 
0.67012 -1.27276 -0.166644 0.490129 -1.24969 0.145408 0.879531 -1.29186 0.214296 
0.970306 -1.38754 0.0887494 0.535618 -1.28035 0.0564816 0.995182 -1.25535 0.4438 
0.648732 -1.33019 0.341103 0.941793 -1.29609 -0.063077 0.6715 -1.2108 -0.283744 
0.725605 -1.22908 -0.145194 0.79126 -1.30419 -0.0807196 0.82095 -1.34985 -0.0455356 
0.739899 -1.31837 0.177963 0.702636 -1.3551 0.138522 0.859648 -1.29909 -0.0262993 
1.00893 -1.24926 0.0865566 1.06214 -1.27493 0.0385726 0.912258 -1.25105 -0.140038 
0.7869 -1.28885 0.114872 1.10904 -1.28516 0.393739 1.0043 -1.2468 0.189034 
0.818626 -1.24339 0.228995 0.698411 -1.25827 0.11099 0.9314 -1.36158 0.216227 
0.857243 -1.28508 0.118883 1.19578 -1.36102 0.117236 0.947631 -1.35368 0.143777 
1.12381 -1.25909 -0.0981343 1.02645 -1.26091 0.275362 0.763055 -1.22449 0.0950699 
0.99297 -1.35442 0.196334 0.297589 -1.4153 -0.358872 0.199596 -1.37214 -0.327224 
0.0322034 -1.4135 -0.0346006 0.441324 -1.28069 0.531353 0.0339859 -1.41171 0.1913 
0.088042 -1.32443 -0.107029 0.340216 -1.30687 -0.394474 0.0369042 -1.3621 0.0211667 
0.0326481 -1.34523 0.488207 0.346412 -1.40639 0.198501 0.151681 -1.41314 0.444405 
0.323912 -1.34692 0.532516 0.0880724 -1.39514 0.227363 0.326574 -1.35888 -0.26553 
0.218173 -1.35079 -0.128997 0.247942 -1.41429 -0.201197 0.124808 -1.33758 0.153011 
0.311898 -1.29155 0.501986 0.0914776 -1.3372 -0.219844 1.00547 -1.41418 0.472963 
0.234076 -1.40735 0.202615 0.218294 -1.3417 -0.0602034 0.403426 -1.35844 -0.282329 
0.150932 -1.32357 -0.00109715 0.582362 -1.41374 0.21543 0.468987 -1.4131 0.144628 
0.452252 -1.28907 0.341083 0.273836 -1.35696 0.32277 0.194256 -1.36246 0.157579 
0.311491 -1.34572 0.270455 0.802581 -1.4127 -0.226415 0.190211 -1.38814 0.264685 
0.356633 -1.34238 -0.0620908 0.161696 -1.30576 -0.12077 0.394472 -1.41526 -0.141336 
0.293254 -1.3543 -0.0873493 0.465378 -1.33987 0.396009 0.47913 -1.25494 0.394915 
0.297841 -1.35991 -0.0221248 0.358409 -1.34945 0.0163009 0.800902 -1.29763 -0.212212 
0.378925 -1.36167 0.155184 0.336234 -1.34528 -0.179597 0.352539 -1.29995 0.131931 
0.377611 -1.29362 0.256163 0.347362 -1.33269 0.211685 0.525974 -1.23585 0.436722 
0.447918 -1.29515 0.108862 0.734843 -1.25939 -0.210317 1.05805 -1.36702 -0.147652 
0.310186 -1.30423 0.00398276 0.443682 -1.30485 -0.0198144 0.836481 -1.41477 -0.140653 
0.613574 -1.36233 -0.0114334 0.649993 -1.36311 0.27517 0.501475 -1.35076 0.244421 
0.518299 -1.26078 0.345309 1.14793 -1.36794 0.380233 0.628741 -1.36895 -0.0746843 
1.12054 -1.28382 -0.219276 0.725245 -1.29687 -0.116664 0.853558 -1.32465 -0.107632 
0.686949 -1.3636 -0.0514643 0.74625 -1.34163 -0.00649251 0.897862 -1.35459 -0.0555529 
1.05007 -1.2361 0.467565 0.635962 -1.31482 0.0923136 0.840966 -1.41501 0.253968 
0.652726 -1.25811 -0.094584 0.895554 -1.35379 0.0898442 1.09816 -1.31898 -0.00111797 
1.01077 -1.31118 0.00853195 0.813366 -1.37075 0.0466201 0.753397 -1.33959 0.102026 
0.695577 -1.29834 -0.0353098 1.05044 -1.34978 0.154922 0.854844 -1.41217 0.0914307 
1.18056 -1.23159 0.410072 0.994624 -1.29004 -0.106 1.09752 -1.40835 0.172919 
0.963272 -1.37555 -0.0366701 0.9715 -1.31625 0.0849876 0.859217 -1.20955 0.455315 
0.0341698 -1.37732 -0.227731 0.0314945 -1.41421 -0.173471 0.0354917 -1.41021 0.467885 
0.0724066 -1.41424 0.307852 0.083857 -1.37136 0.528368 0.0998683 -1.41553 0.47969 
0.0770188 -1.41064 -0.339165 0.166904 -1.39474 -0.39495 0.384447 -1.36053 -0.403686 
0.0336249 -1.41208 -0.285937 0.0513099 -1.41294 0.0665661 0.264735 -1.4091 0.470981 
0.0355818 -1.41055 0.363984 0.24023 -1.4087 0.370453 0.142621 -1.41182 0.527244 
0.301241 -1.35417 -0.332175 0.142947 -1.41429 -0.331466 0.14581 -1.41471 -0.269127 
0.640455 -1.41014 -0.320175 0.424296 -1.41293 -0.237047 0.115819 -1.41367 0.0604319 
0.0974882 -1.34391 0.422082 0.39205 -1.33181 0.529311 0.109645 -1.35188 0.315626 
0.500946 -1.4062 0.400671 0.175011 -1.3714 0.053343 0.310268 -1.40789 -0.168356 
0.292557 -1.41419 0.0897378 0.209801 -1.40955 -0.0930472 0.355138 -1.3489 0.469607 
0.316695 -1.32226 0.415513 0.291428 -1.40986 0.249618 0.713847 -1.35033 0.518677 
0.207116 -1.35179 0.332054 0.410899 -1.3501 0.349666 0.453616 -1.34853 -0.22417 
0.383522 -1.3558 -0.218959 0.0654489 -1.35874 0.109025 0.455318 -1.40706 -0.173001 
0.24316 -1.35271 0.267314 0.263581 -1.35817 0.128586 0.420476 -1.35384 0.450632 
0.336738 -1.32097 -0.122274 0.45725 -1.41043 0.0499417 0.621459 -1.28621 -0.382273 
0.523278 -1.29211 -0.290438 0.569895 -1.41475 0.0649545 0.518701 -1.2859 0.489655 
0.648232 -1.41098 0.225411 0.550318 -1.35131 -0.296721 0.456608 -1.41397 0.209115 
0.680575 -1.36146 0.394782 1.0727 -1.29141 -0.269874 0.462881 -1.28387 -0.07974 
0.427853 -1.34138 -0.0859187 0.501885 -1.32632 0.0148961 0.438302 -1.34185 0.0377543 
0.529252 -1.3313 0.355548 0.571451 -1.28978 0.535691 0.942796 -1.25487 0.531368 
[...]
POINT_DATA 1274
FIELD FieldData 10
VELOCITY 3 1274 double
-1.5600385184e-05 -2.8543105593e-05 -8.8669719896e-05 -0.00025834973216 2.9135809747e-05 6.9542618833e-05 -0.00017401843474 -3.8518589224e-05 0.00014397771644 
-4.8088967365e-05 3.1069456855e-05 8.1915125069e-05 -0.00015952547322 -2.0327359366e-05 4.7515344666e-05 -6.5317210618e-05 6.6726402139e-05 0.00023688889283 
-0.00023944184744 -5.7102998525e-05 -1.4188351803e-05 -0.00026134783365 2.281417278e-06 -0.00013554206298 3.9573897644e-06 7.4937394819e-05 -0.00017417691034 
4.587092607e-05 -9.8991470977e-05 -0.00012435635253 -0.0001588962795 3.5824609327e-05 1.049162209e-06 -0.00022647817357 -0.00028312723904 -0.00011423633052 
-5.0638480667e-05 -0.00011175207304 5.6123030242e-05 -9.3619519117e-05 -3.0329331672e-06 -1.563771119e-05 -9.7101625413e-05 2.7129369209e-05 4.142251759e-05 
5.5173355317e-05 6.6098482405e-05 -4.6657790345e-05 -1.754809252e-05 8.9388501169e-05 9.1636469817e-06 -0.00029063365142 -0.00013441001429 -5.3415027902e-05 
-1.9574523708e-05 -0.00017944991473 -0.00019506930186 -2.183144643e-05 5.137313018e-05 8.4247226154e-05 0.00038273553142 -8.2803465816e-05 3.0785114393e-05 
0.00011229972786 -6.9394411417e-05 -0.00015333697242 7.4388420009e-05 -3.9147056977e-05 7.5324001036e-05 -0.00010303975404 -2.201931151e-05 2.4240926718e-05 
-0.00011017515599 -8.6872132121e-05 0.00021729559751 -0.00016994013829 -5.8313264813e-06 6.9863477133e-05 -1.2250643914e-05 -0.00011426365744 -6.4485749213e-06 
-0.00025737567935 -8.4537642184e-05 -3.0255325483e-05 -0.00013273179282 -9.73518899e-05 7.0202839398e-05 -0.00035125096656 -6.5375702373e-05 -7.0356180861e-05 
-0.00018465844032 -5.4545390599e-05 0.00018126238838 -7.4414210155e-06 4.11995193e-05 -0.00019524387534 -0.00021034276608 -0.00017678057227 -1.3077313463e-05 
2.7586009137e-05 -0.00021499013971 -0.00010039843117 0.00014106410289 4.604282954e-05 -3.1147917098e-05 8.4327596649e-05 -0.00015755521804 2.0509497493e-06 
-0.00011325648536 -0.00017420328123 -0.00018543839961 -4.0573836973e-05 -0.00022234562286 -7.9530781929e-07 -6.2954452338e-05 -0.00012606143027 -7.331499115e-05 
0.00044145980553 -0.00027113541654 0.00030919781758 -6.7069623301e-05 -0.00029498670862 0.00010574147325 -1.960136772e-05 1.3559710803e-05 6.4456076069e-06 
-0.00014441907141 -2.3272127393e-05 -9.8260533402e-05 0.0001427554978 -3.1652819615e-05 -0.00013247276145 -0.00019417413697 -8.3433797004e-06 0.00032205229396 
0.00015767954634 -0.00020045539804 0.00010307425596 -1.5656565107e-05 -0.00012194203409 1.3004221279e-05 -0.00047060245949 -2.7429867367e-05 0.00012786658034 
-0.00019150451186 3.1941240517e-06 -3.6056569122e-05 -5.3528969941e-05 -7.4500350685e-05 -2.0672945352e-05 4.6766348069e-05 -7.6144826998e-05 -1.5185812287e-05 
9.7960178161e-06 -0.0003563603143 0.00010788626641 -0.00015175284925 -6.28777657e-05 -8.1391519359e-05 -0.00017537117658 0.000110984615 4.952382209e-05 
-0.00011246464925 -6.1167005677e-05 0.00014450792663 -7.993264841e-05 -3.2172800195e-05 -9.0577058709e-05 0.00010609849744 -1.1547760923e-06 5.982220329e-05 
8.0306722486e-05 -1.4464928666e-06 3.9301606626e-05 -7.7977753375e-05 4.6120132761e-05 4.6696040028e-05 -8.7555000016e-05 -5.7737243521e-06 0.00010661284412 
-0.00015735502444 5.1252818491e-06 0.00018184545725 -0.0001644268284 -0.0001188838751 -4.9041789701e-05 -0.00028536340055 -4.029476363e-05 -4.4548963291e-06 
-6.4926250583e-07 -5.2246729677e-05 0.00014960364526 -0.00015543640655 -0.00022714346837 0.00021892667269 -6.5930822709e-05 -0.00016723986094 3.2106496565e-06 
-0.00025954139554 4.5100764815e-05 4.3566047818e-05 -6.140234665e-05 2.4916163459e-05 4.1482285926e-05 -0.0001192584274 3.0599921195e-05 -2.1881946203e-05 
-0.00011379136413 -3.6978860676e-05 6.1009493449e-05 -0.00016451331024 6.5433580253e-05 0.00019065738667 -0.00013331653824 -2.641236622e-05 -9.3955476681e-06 
-3.8012402399e-06 -8.7167282172e-05 -5.7806169029e-05 -0.00017305719145 6.7069392699e-05 -2.3546980187e-05 3.4782430402e-05 -9.5661331446e-05 -0.00017129200548 
-8.5181603614e-05 -1.9626244479e-05 0.0001357971664 -0.00023502578173 -0.00013475472442 8.145720882e-05 4.1532845014e-05 -6.8937897371e-05 5.2720040539e-05 
3.6714781327e-05 5.4055938393e-05 0.00022048017575 0.00033611682584 0.00011171499128 0.00014765465297 -0.00024052959034 3.5820094942e-05 7.9165341725e-05 
-0.00025212042564 -9.1080617276e-05 -4.2250669683e-05 -0.00022481950039 -0.00015091617532 9.3831420058e-05 3.9427843173e-05 -0.00011337272587 6.7573580414e-05 
3.5704461963e-05 -0.00025674312703 -0.00010678808377 -0.00013269786358 -9.1446437811e-05 -0.00014498670663 0.00019683864923 -0.00017015403854 -0.00012434276699 
0.00023442849583 -0.00013121155363 7.611861167e-05 4.9212853674e-05 -0.00017760588122 0.00010916771389 2.9136460855e-05 -0.00017703095059 -8.8045103966e-05 
-0.00026273447897 8.6883253911e-05 1.4011572108e-06 -0.00010094427325 -9.2597972126e-05 2.6939914361e-05 -0.00011264176618 -1.5735040013e-05 -6.7736822394e-05 
2.737869198e-05 -0.00027161606893 -0.00020403720988 -4.272341809e-05 1.4304876191e-05 0.00018195008421 -5.4018371518e-05 -0.00034097842202 -0.00026761456507 
-4.338759889e-05 4.2290891075e-05 -5.4730899607e-05 0.00020350144232 -5.7412034871e-05 0.00015988111251 3.6254873457e-05 -1.1346166513e-05 -0.00012525036544 
-7.0211727017e-05 -3.7367587958e-06 -8.8062605411e-05 -0.00024297929818 2.4160355635e-05 8.2612070468e-05 2.2809418832e-05 -5.2835517015e-06 -0.000167584832 
-0.00019148104608 0.0001056442568 9.2830014666e-05 -0.00010141979678 -0.00029012160798 -8.3492847243e-05 7.6544540766e-06 -0.00011622360076 -0.00020956730606 
-1.7671993379e-05 -0.00026467618103 -0.00014955822235 -6.017327896e-05 -7.0289544458e-06 -0.00014461713272 -3.87143202e-06 -4.7925274375e-05 -0.00015668381266 
3.6417141462e-05 -0.00020071426419 5.4482151801e-05 1.3564146571e-05 -4.0942214827e-05 -0.00012322715246 -8.118477145e-05 3.0745221979e-06 1.5347530656e-05 
9.8487330976e-05 -8.5423732216e-05 0.00014483075839 -0.00011236515529 -0.00027633497656 6.9973699072e-05 -0.00011251840313 -6.809671157e-05 -4.8804473074e-05 
6.3473541892e-06 2.7716937055e-05 1.2633425862e-05 5.4934800176e-05 -9.6240696899e-05 -0.00014665832063 -3.7886932364e-05 -8.0048124943e-05 7.2353519974e-06 
4.1322424033e-05 -3.4151451255e-06 2.8555071917e-05 -6.809147723e-05 8.6919026298e-05 1.5356276386e-06 -3.7371724726e-06 -0.00029451179559 -0.00018176400326 
7.2769784542e-05 -0.00033789545286 -0.00018735539509 7.8164061489e-05 5.040006026e-05 -0.00011813658055 -0.00020716655149 -4.2807983822e-06 -3.8377081703e-05 
-0.00013975624692 -8.9669942859e-05 0.00010395500066 -9.3577081007e-05 1.8358628108e-05 3.0267333265e-05 -0.00013653917694 -6.6154416456e-06 -0.00011487345128 
-1.0567577676e-05 -3.8299261331e-05 -5.682423519e-05 5.0231344061e-05 -9.9722067371e-05 -0.00012609371104 -0.00033066258532 -0.00020084944957 0.00035810841369 
-0.00025305886581 -0.00017298824981 6.2703332194e-05 0.00013402870823 -0.00021767803056 -0.00013529276685 -8.6803595666e-05 5.2569671981e-05 -8.786175534e-05 
-0.00016166960233 -0.00018519440161 -6.7488120198e-05 9.751527517e-06 -8.0351100732e-05 -2.6128270701e-05 -0.00028226230679 -0.00015655396925 -0.00026441451845 
-5.9695093488e-05 -0.00022153980907 1.6148661944e-05 -1.8623486788e-05 -1.2346278764e-05 8.7967278657e-06 -3.6254619771e-05 2.700172422e-05 -1.7859944676e-05 
5.4527741349e-05 9.2002187919e-06 1.985153732e-06 -1.7514082913e-05 2.9121705369e-05 0.00020043986838 -3.6684522976e-05 -7.3196155781e-05 -3.0900770375e-05 
-7.0728412373e-05 3.311285332e-06 -0.00013194438733 3.8381827991e-05 1.5087455823e-05 -4.2649664339e-06 -0.00020062754967 -6.9355527293e-05 -7.6059940809e-05 
-1.1508618463e-05 1.0820767113e-05 -2.1746598716e-05 -6.7489990465e-05 -7.5934391e-05 -5.4720455192e-05 -5.0417653024e-05 -4.1906644938e-05 -9.7103389654e-06 
9.8656818242e-05 -3.8729511871e-06 5.619071407e-05 -1.0625667755e-05 1.6620308993e-05 6.199094522e-05 -7.1177977368e-05 -4.2785871408e-05 -0.0001111274077 
-6.2662142542e-05 -0.00018349532898 9.2158732903e-05 -5.9856731489e-06 6.9802449193e-06 -3.4067083982e-05 -0.00022452279857 7.1814948913e-07 -8.6751500372e-05 
-5.8114563669e-05 0.00015184819594 0.00013324295414 -9.6074356949e-05 3.9545037117e-05 2.9314540292e-06 -9.4311229726e-05 -6.980039737e-05 -6.1166451605e-05 
-0.00012829224782 -7.7452661187e-06 3.2290426361e-05 -0.00018953391965 5.0123125079e-06 1.5367714114e-05 2.7235384076e-05 -3.6531939594e-05 3.3514316653e-05 
-5.6736071786e-05 2.5540037026e-05 -5.3670930796e-05 -0.00016111935683 -5.3697736365e-05 -3.6874940917e-05 0.00028274930719 -7.3567265603e-05 -7.8195992227e-06 
-0.0001038498129 2.0513101293e-05 0.00012940787924 0.00014004964544 -9.8207159149e-05 -5.8863053075e-05 -0.00014221737944 -2.9991622796e-05 3.8119799479e-05 
-8.1567863861e-05 5.2800982897e-05 2.9613999997e-05 -0.00014409100241 4.5019489384e-05 0.00014581026702 -0.00020987354105 -5.6126009853e-05 3.3916763884e-05 
4.882463592e-05 -0.00027027502631 0.00011619427062 -9.8920264496e-05 2.8727602026e-06 6.0108679036e-05 5.6469096482e-05 -8.6852651444e-05 9.8394715784e-06 
-0.0001003306285 6.4406514261e-05 -2.9597327978e-05 -0.00019708859506 8.6050346379e-05 0.00020827618739 -0.00027693289037 5.2804149791e-05 -8.9820600431e-05 
-0.00011550995868 -2.1562644377e-05 2.6096922798e-05 9.6429105362e-05 -0.00027487727523 5.3126001801e-06 -0.00012687306232 4.4566845802e-05 -2.3058531445e-06 
5.8492815334e-05 -0.00016924452549 0.00019756643834 -0.00018195045904 -2.8803657882e-05 7.7382932568e-05 -8.3204484117e-05 -0.00011861167272 0.00012907293898 
-4.8240953402e-05 6.5676965098e-05 -9.8988121074e-05 -9.4858333254e-05 5.2386686038e-05 0.00010111207313 -6.8417462487e-05 -2.2876788319e-05 -4.2491311251e-05 
-2.9853595081e-05 -0.00027570975178 0.00012524394942 1.1093616972e-05 -9.5436656354e-05 3.7135848559e-06 5.9839144144e-05 4.1914782442e-05 7.8882470223e-05 
-8.4846427136e-05 0.00017868455053 3.4164211532e-05 -2.6347767076e-05 -5.2579028081e-05 8.4897643797e-06 0.00024726471175 -0.00010486459606 -6.7530438043e-05 
4.4226058888e-05 -4.7667041861e-05 1.0778487659e-05 2.2042345093e-05 -2.9151352337e-05 0.00010325008783 -0.0002002717316 -0.00021898561733 -0.00015249795061 
-0.0001426606567 -6.6842574343e-05 -6.2867952725e-05 -6.4121549212e-05 -4.0219878345e-05 -3.2056288799e-05 9.463930461e-05 -3.8136972645e-05 -0.00020958314781 
-1.6185615407e-05 -7.3004062261e-05 -0.00013450546055 -0.00025185812881 -9.0056805145e-05 4.0713588845e-05 5.8047773413e-06 -1.7703322731e-06 0.00015561441351 
0.00011215906454 -1.882925289e-05 -0.00023147654633 0.00010416315741 -0.00013588693094 -8.08620207e-05 -7.4097885992e-05 -6.8755454602e-05 0.00023552151423 
-2.7222760055e-05 -9.0076633325e-05 -0.0001065185758 -0.00027790258081 -0.00069393142048 -0.00061564376352 -7.4824683892e-05 -1.7142214632e-05 0.00010491673651 
0.00012950656182 -0.00011937898378 -4.1496652566e-05 -0.00016349691583 -6.6458091299e-06 3.8627670288e-05 -0.00026411555089 -0.00019502796941 -0.00039587680384 
5.3897960876e-05 1.2280002501e-05 -0.00016764015517 -3.5818140025e-05 -6.6105581703e-05 0.00014422086297 0.0001806914788 0.00012550415728 0.00015095099136 
1.7108641838e-05 -0.00015097768774 -0.00017157020801 3.7215242829e-05 -0.00012206964713 8.3324757366e-05 -0.00011192156838 -0.0001562460895 -0.00013188960751 
-0.00018117257153 -0.00062928289406 -0.00024859820744 9.7274089675e-05 0.00016430568949 -0.00018114480855 7.5414292955e-06 3.4595643299e-05 -9.1666050614e-06 
1.5558370611e-05 -1.5627493759e-05 -6.2747233952e-05 -7.4402343557e-05 -3.2005065703e-06 -1.7198760157e-05 1.6120543106e-05 -0.00026187254651 0.00017225016852 
5.9139347415e-05 -0.0001790625146 -2.9315461846e-05 9.2817282041e-06 -3.9138861012e-05 1.7754713173e-05 1.682991569e-05 1.3219522848e-05 5.1842171086e-05 
-6.7766121065e-06 5.4027659844e-05 -0.00018020792997 -0.00011480822542 -8.611429749e-06 1.337423629e-05 -0.00028847778591 0.0001909374228 -0.00017351780403 
-9.3372848933e-05 -2.6468484906e-05 2.488165984e-05 -3.6210863187e-05 6.5943299269e-05 3.8565335539e-05 -4.7521464167e-05 -1.3209569964e-05 -2.8875291565e-05 
2.8236664251e-06 -0.0001738373919 0.00018403194747 -0.00061799765896 7.3975389692e-12 0.00080473983805 -0.00017732125121 4.8299876061e-05 4.0409083776e-05 
-6.0482819915e-05 -5.1613080072e-05 -5.2613973029e-05 -6.2068349807e-05 0.00016516792216 -7.4953216594e-05 -0.00013068309178 7.6721663593e-06 -1.6582248042e-05 
-0.00013088053649 9.8393920878e-06 -8.0427118753e-05 0.00012170277652 -0.00016530430712 0.00015333630256 -2.5987263336e-05 2.2896772683e-05 -1.4772031896e-05 
-7.5532853629e-05 -7.1524709625e-05 -4.1427778974e-05 -1.4773333791e-05 9.8588696543e-07 0.00012602742073 -0.00010646564198 2.357420676e-05 1.6225424023e-05 
-0.00024654764322 -3.8048951106e-05 5.9154870906e-05 -0.00012971728316 -1.3823644929e-05 4.6464792045e-05 -0.00018171681264 2.0448733442e-05 -2.7819347669e-05 
-0.000137560611 -3.7552555768e-05 6.3235402477e-05 8.1665004112e-05 -1.4647509087e-06 -0.00017140918801 -7.4165160488e-06 -0.00014661888751 2.0323178775e-05 
0.00012859708902 -6.97176386e-05 -2.7748052554e-05 4.9794731619e-05 2.0936205719e-05 9.4799094975e-05 -5.0390108781e-05 -1.7253129929e-07 0.00012685085856 
9.0710845176e-05 -4.4454138552e-05 -2.8647355065e-05 -0.00016858834084 -5.9492437308e-05 -6.0746601235e-05 -0.00011323003159 -7.278659129e-05 5.6513509658e-05 
-0.00017284348076 -5.9247535481e-05 5.8882431838e-05 -0.00020021180411 -3.4240261646e-05 2.3863516288e-05 9.9825840331e-05 -0.000181695344 -9.4199727312e-05 
-6.9140548013e-05 1.6674392111e-05 1.5002182661e-05 -2.4737865685e-05 0.00016554516089 -0.00017676840598 -0.00015144552557 -4.5295155446e-06 7.2944017947e-06 
-3.7101076397e-05 1.7969497862e-05 -8.601282389e-06 -6.0135479896e-05 -3.0929082152e-05 5.6204067373e-05 -6.0526899454e-05 -0.00016957975813 6.6222860415e-05 
-8.1775980646e-05 3.3523437601e-06 -2.1530160122e-05 -4.6944304132e-05 -0.00038179693664 9.289582542e-05 -9.2196169269e-06 -3.870794499e-05 2.7423283037e-05 
-0.00019498980424 5.192933422e-06 3.0404467815e-05 2.1056090478e-05 -0.00010205873379 -2.5639632641e-05 -4.8690664895e-05 6.3801698215e-06 5.5472120619e-05 
-3.2807639565e-05 -7.9747558557e-05 -0.0001192222497 -5.2807903215e-05 -8.851339245e-05 0.0001306246849 -0.00016910402028 -7.0037326604e-05 -2.9329333453e-06 
-0.00011990186971 -0.0002292078657 4.7769348639e-06 6.7373636282e-05 6.1260982791e-05 4.1160423678e-05 -4.9401401225e-05 -9.941691527e-05 4.3421767935e-05 
7.4876108236e-05 -0.00010099175591 -0.00012098778163 5.513649626e-05 -0.00022418104149 -0.00037288861833 -0.00017148557564 -6.155805247e-05 0.00016097347434 
8.1175597661e-06 2.0902585487e-05 2.3264646016e-05 -0.00012834681402 -0.00010687447983 -1.4195691021e-05 -1.0074121423e-07 8.3739826147e-06 3.611292818e-06 
0.00013223660321 1.6940707991e-05 5.6085305002e-05 1.374913028e-05 -3.8551182294e-05 -1.1173655556e-05 -0.00022258131715 -8.8191425124e-06 -0.00022047382004 
-3.7666679943e-05 -0.00024435819142 -0.00011488447478 -0.0001021690236 -3.1536460142e-05 3.0373959602e-05 -5.3800529011e-05 -0.0002827517506 -0.00022818928371 
1.4841273815e-05 -0.00011345423651 -2.5147338427e-05 0.00021891399608 -0.00014406092362 6.0842346627e-05 -0.00017527512462 -3.4198904817e-05 0.00022182928929 
-0.00018723368039 -0.00012436406403 -0.00017875936175 6.6280813811e-05 4.2552008115e-05 -0.00011852580414 -1.3382744083e-05 2.449088991e-05 0.00018170738023 
0.00016820569033 -0.00023996485279 -2.57946922e-05 0.00014287364922 2.1973651028e-06 0.00016441966621 -0.00032191552726 -4.2639281973e-05 -0.00027421471689 
-0.0001340571943 -6.7912739961e-05 0.00010143812352 -0.00011283747972 0.00012224943586 3.2469690086e-05 -0.00022862305255 -0.0001595602554 -0.00035409703082 
1.6253014989e-05 -4.0013481549e-05 -0.00021590010852 -0.00013442220006 0.00018217357244 -9.0506937981e-05 -1.5820382045e-05 -3.1972223064e-05 -1.0563651836e-06 
-5.3744686453e-05 3.5150293093e-12 0.00021754223253 -0.00019382597296 9.2644004063e-05 -3.4312038686e-05 0.00010510045377 2.52906125e-05 0.00040661446292 
8.074289834e-05 3.2159511444e-05 -0.0001212918724 -2.4007295012e-06 3.7962591517e-05 -2.9990378901e-06 4.3518686312e-05 -1.6770112634e-05 -5.3565386126e-06 
1.172647404e-05 1.6495620054e-05 -6.4271615307e-05 -3.0253339762e-05 -1.8897133052e-05 -1.3961411823e-05 -0.00023997103545 -3.730016678e-05 -3.9701935456e-05 
4.421360262e-05 2.3417117503e-06 0.00015520641954 0.00011297041333 4.4111721579e-06 6.1758537434e-05 -0.00019577277921 -3.931642907e-06 0.00026647553347 
-0.00013029949122 -9.3548401383e-05 0.00015451394113 4.4086172884e-05 -5.7602726807e-05 -2.4198723873e-05 -9.3175641507e-05 0.00010136042632 3.8107382895e-07 
4.975432205e-05 -2.0084398058e-05 0.00012436658031 -4.479200268e-05 -1.2104818746e-05 1.2362518603e-05 -4.9838651064e-05 2.401446914e-12 -0.00010956749741 
6.8614146427e-06 3.591228607e-05 -3.1738058387e-05 -9.0565789145e-05 -9.4644060494e-07 -2.1682826158e-05 -4.8499055003e-06 1.8423970794e-05 0.00012152223728 
5.1836503615e-05 -1.4767495193e-05 -0.00024368752004 -8.2082681407e-05 -4.0051346436e-05 -0.00012657496901 -8.5932370386e-06 8.030859493e-05 -3.0715124384e-05 
4.5380792981e-05 -1.3691497506e-05 -5.4842723512e-06 -5.9419770779e-05 -0.00021480587392 -5.9903849446e-06 -0.00017310307878 -3.388995223e-05 7.4097560623e-05 
-6.5975501611e-05 1.1162381739e-05 2.368185556e-05 -6.8721069148e-05 -2.6658492984e-05 3.6032980589e-05 4.6445644891e-05 5.5965921295e-05 0.00011895512793 
-8.8113652908e-05 -1.7103089155e-06 5.4923462864e-05 -0.00025812336132 -3.6798204122e-05 2.9527885584e-06 -2.0696488998e-05 -5.0324890836e-05 1.6698691063e-05 
0.00010348859504 3.0469750588e-05 8.2022264054e-05 -8.6774989128e-05 3.0818233741e-05 -6.2877864017e-05 -0.00011006499078 6.8066469976e-05 7.0531306511e-05 
-0.00018981028572 -4.9597607793e-06 -1.0158538973e-05 -6.3963766958e-05 -1.282567566e-06 2.8746860389e-05 -0.00016381957031 -7.3978451081e-05 9.3809125592e-05 
0.00010208750348 -8.1319638471e-05 5.8069577888e-06 -0.0001604648859 -0.00014569641558 0.00017073769068 5.7338330854e-06 -0.0003553906035 -6.4790472694e-05 
-0.00028143951635 -6.511500592e-05 7.416016168e-06 9.762928967e-05 -1.333057092e-06 -5.6654735682e-05 -0.00034805639085 2.7610491629e-07 0.00014799607558 
-0.00026135494367 4.513415993e-05 9.0980719697e-05 -1.8890289131e-05 -9.0932081215e-08 -1.1956909223e-05 1.0888014824e-05 -8.9613531527e-05 -9.9010749558e-05 
-0.00013716292265 -6.152136099e-07 9.2121017079e-05 -8.391500583e-05 -0.00017040931428 6.4980260754e-05 -0.00016077261744 8.0280129979e-05 5.9938743661e-06 
-0.00021832598671 2.9237146656e-05 0.00020395566382 -9.1497018973e-05 0.00013733452346 -4.1538416381e-05 -5.07110422e-05 1.8252720534e-05 2.0622551609e-05 
-0.00019673628347 -0.0002485876503 -1.4247479947e-05 -6.7499261151e-05 -9.4563365556e-05 -3.9940836469e-05 -1.2641690697e-06 -0.0001919560867 -2.0159861664e-05 
-6.6651761644e-05 -3.7993069313e-06 2.859724068e-05 -0.00015498757543 -7.2541395525e-05 -3.1308041956e-06 0.00019533788094 -0.00010552707089 -5.5484714619e-05 
4.9947440572e-05 -0.00019609979467 -0.00031045345065 -0.00024940216161 -0.00028215935934 -0.00030912793029 -0.00013852658686 -3.7456368939e-05 -1.0935164965e-06 
2.0273294585e-05 -3.007475125e-05 -0.00032708912584 -0.00011126941304 1.8831010236e-12 4.9845776734e-05 3.3376730688e-05 -6.1085150625e-05 -0.0001937872536 
-4.0758960564e-05 0.00018401740592 3.4319882158e-05 -0.00031889104701 -0.00013927807021 0.00011182464046 7.4783393189e-06 1.1229279217e-05 -0.00011449961278 
-0.00012170577342 -7.1805330627e-05 0.00017391445906 -0.00020349425652 -0.00018606757801 -7.9760920104e-06 -0.00010255019397 -3.3221976766e-05 -2.3269985282e-05 
0.00018166689122 4.390375848e-05 -6.1796883211e-05 2.5173280935e-05 9.4235638611e-05 -4.1128942798e-05 -8.9048813443e-05 1.0059459284e-05 -5.9913025806e-05 