# vtk DataFile Version 4.1
vtk output
ASCII
DATASET UNSTRUCTURED_GRID
POINTS 1274 float
0.273691 -1.29445 -0.0532821 0.273734 -1.3022 0.0958764 0.279414 -1.29494 0.317513 
0.157833 -1.31609 -0.211079 0.298453 -1.29135 0.17814 0.41155 -1.23455 -0.0670482 
0.381413 -1.2911 0.322102 0.470044 -1.23549 0.493006 0.512127 -1.24367 -0.00806931 
0.63703 -1.25335 -0.00563406 0.538873 -1.34672 0.187567 0.64122 -1.22265 0.434249 
0.852399 -1.27258 -0.151214 0.843472 -1.25445 -0.0829388 0.657726 -1.29641 0.15806 
0.755445 -1.27584 0.265863 0.696151 -1.27027 0.218737 0.793828 -1.20793 -0.0448818 
0.637061 -1.20758 -0.0560258 0.672388 -1.34643 0.0077952 0.715227 -1.19073 -0.0821886 
0.690723 -1.30817 0.278219 0.39101 -1.23456 0.281863 0.615208 -1.27212 0.2248 
0.91282 -1.23665 -0.07647 0.30111 -1.2505 0.128393 0.657522 -1.20789 0.363646 
0.814074 -1.19498 -0.113161 0.921221 -1.31395 -0.000287342 0.822856 -1.22934 0.038055 
0.971693 -1.20858 -0.0150153 0.65693 -1.22807 0.0466507 0.557554 -1.21901 0.378499 
1.0824 -1.22287 -0.287858 1.03362 -1.24155 -0.141533 0.503981 -1.22138 0.280687 
0.789852 -1.27883 -0.0126183 0.6349 -1.27386 0.285654 0.405212 -1.25073 0.137804 
0.951879 -1.20273 0.059455 0.85137 -1.22681 -0.20844 0.79809 -1.23314 0.160131 
0.83815 -1.21213 0.10883 0.748339 -1.22102 0.215982 0.90336 -1.24345 -0.00526657 
0.985302 -1.23827 -0.236474 0.89175 -1.25241 0.29158 0.886643 -1.21794 0.230257 
0.452184 -1.29933 -0.306837 0.167815 -1.33257 0.280779 0.145288 -1.35889 -0.0654377 
0.0370367 -1.33481 0.173686 0.286346 -1.34238 0.471603 0.255832 -1.33815 0.384998 
0.239844 -1.31338 0.164969 0.379592 -1.35341 0.285111 0.153361 -1.34834 -0.272868 
0.359444 -1.41001 0.0556519 0.611793 -1.28941 -0.2132 0.217782 -1.35346 -0.222098 
0.399521 -1.34728 -0.151306 0.371579 -1.35522 0.404657 0.399156 -1.29304 0.394596 
0.278105 -1.34831 0.208915 0.2134 -1.33838 0.00548236 0.485104 -1.26622 -0.187307 
0.413216 -1.3608 -0.023742 0.583419 -1.34512 0.299887 0.433212 -1.28265 -0.142615 
0.304118 -1.28407 0.243113 0.552667 -1.36024 -0.0194197 0.376641 -1.2737 0.194411 
0.331408 -1.29839 0.0617589 0.33051 -1.26191 0.445493 0.50865 -1.22748 -0.0834362 
0.623478 -1.4128 0.0996332 0.54403 -1.25118 -0.240653 0.21246 -1.28188 -0.175328 
0.568429 -1.35598 0.0415575 0.541501 -1.30129 -0.0340538 0.327971 -1.26216 0.297817 
0.451321 -1.28845 0.450293 0.579779 -1.33505 0.469944 0.446526 -1.28096 0.264226 
0.5111 -1.29953 0.290991 0.451925 -1.36113 0.11212 0.615778 -1.30371 -0.0477606 
0.643845 -1.22737 -0.214026 0.972704 -1.28514 -0.284514 0.570413 -1.28638 0.172248 
0.475007 -1.28634 -0.250663 0.76458 -1.28925 0.343914 0.645509 -1.32734 0.220663 
0.577103 -1.2388 -0.0538453 0.999447 -1.26672 -0.0443859 0.741691 -1.25467 -0.0609993 
0.684797 -1.29043 0.0494308 0.876523 -1.34919 0.162064 0.60317 -1.25473 0.0797343 
0.780264 -1.23223 0.388038 0.790743 -1.24156 0.46474 0.545536 -1.26311 0.232807 
0.82602 -1.35951 0.207742 0.622008 -1.22516 -0.144797 0.687871 -1.23263 -0.0331394 
0.553126 -1.2408 0.123755 0.732412 -1.23672 0.0212216 0.80845 -1.30048 0.17797 
0.828885 -1.25048 0.340786 0.681253 -1.26711 0.329805 0.809215 -1.22666 0.532537 
0.912629 -1.24743 -0.369658 0.769581 -1.30992 0.0489872 0.437642 -1.25604 0.192624 
0.723892 -1.22675 0.535002 1.16354 -1.22119 0.0117351 0.628926 -1.26637 0.530088 
0.734238 -1.2257 0.317631 0.704899 -1.2451 0.415677 0.578906 -1.24342 0.0153542 
0.958731 -1.29279 0.219389 1.10574 -1.23871 -0.16716 0.838945 -1.3053 0.0441889 
0.97689 -1.22608 -0.0923404 0.908258 -1.28983 0.0617972 0.616286 -1.23687 0.14744 
1.32158 -1.19722 0.526073 0.738715 -1.25646 0.160991 0.940135 -1.22533 0.193893 
0.952249 -1.20836 0.423022 1.21197 -1.26355 -0.182853 0.905089 -1.23205 0.0977308 
1.04503 -1.22592 -0.00803324 0.863865 -1.23345 0.171976 1.10048 -1.2583 -0.0323038 
0.963339 -1.263 0.0318226 0.0866783 -1.41341 -0.246634 0.285897 -1.36069 -0.213108 
0.430073 -1.40919 -0.397639 0.0351688 -1.35956 0.315499 0.213233 -1.32117 0.482542 
0.0966425 -1.40799 0.156642 0.21665 -1.34412 -0.402017 0.500649 -1.31859 -0.348242 
0.087087 -1.35983 -0.38151 0.493682 -1.34762 0.459697 0.251025 -1.279 0.529061 
0.147163 -1.35435 0.379466 0.241044 -1.41179 0.297754 0.0966481 -1.35821 -0.0125899 
0.276965 -1.32009 -0.156575 0.0800913 -1.35881 -0.288985 0.472176 -1.35384 0.309863 
0.348619 -1.40768 -0.0292532 0.129607 -1.34345 0.230533 0.213218 -1.33463 0.0981015 
0.219594 -1.29566 0.291463 0.320739 -1.29138 -0.29505 0.270943 -1.34801 0.040436 
0.42246 -1.3183 0.166097 0.0825404 -1.29266 0.215253 0.515623 -1.30061 0.419 
0.893199 -1.3002 0.533049 0.546961 -1.35567 0.420389 0.240783 -1.29491 0.228694 
0.31815 -1.35522 0.156994 0.318841 -1.35427 0.0926346 0.367213 -1.28846 -0.232384 
0.520265 -1.33287 -0.241391 0.4926 -1.2928 0.204071 0.54856 -1.22586 0.527673 
0.644559 -1.2873 0.408225 0.776855 -1.34078 0.462121 0.423709 -1.34426 0.228916 
0.676861 -1.41468 0.136498 0.588963 -1.22241 -0.399202 0.60114 -1.35845 0.188478 
0.854227 -1.227 -0.316304 0.391141 -1.29514 -0.298445 0.828433 -1.29974 0.28379 
0.759098 -1.28958 0.419816 0.332786 -1.28447 -0.172112 0.571312 -1.27627 0.288717 
0.670141 -1.2726 -0.166647 0.490122 -1.24965 0.145392 0.879502 -1.29189 0.214265 
0.970365 -1.38757 0.0886871 0.535633 -1.28034 0.0564657 0.995032 -1.25523 0.443859 
0.648749 -1.3302 0.341087 0.941774 -1.29607 -0.0631304 0.672271 -1.2105 -0.28296 
0.725681 -1.22902 -0.145135 0.791304 -1.30417 -0.080695 0.820882 -1.34983 -0.0454234 
0.739911 -1.31833 0.178043 0.702776 -1.35506 0.138481 0.859674 -1.2991 -0.0262906 
1.00887 -1.24926 0.0866446 1.06211 -1.27488 0.0386142 0.912296 -1.25102 -0.140163 
0.786908 -1.28879 0.114944 1.10918 -1.28482 0.394045 1.00431 -1.24677 0.18896 
0.818584 -1.24333 0.228999 0.698487 -1.25826 0.110984 0.931548 -1.36146 0.216429 
0.857257 -1.2851 0.118929 1.19584 -1.36097 0.117205 0.947525 -1.35377 0.143684 
1.12379 -1.25901 -0.0980311 1.02647 -1.26083 0.275329 0.763112 -1.2244 0.095144 
0.99307 -1.35406 0.196474 0.297585 -1.4153 -0.358851 0.199588 -1.37217 -0.327218 
0.0322034 -1.4135 -0.0345644 0.441363 -1.28069 0.531353 0.0339863 -1.41171 0.191291 
0.0880206 -1.32435 -0.107005 0.340227 -1.30686 -0.394472 0.0369043 -1.36213 0.0211639 
0.0326481 -1.34526 0.488297 0.346464 -1.40639 0.198488 0.151748 -1.41314 0.444415 
0.32395 -1.34691 0.532516 0.0881092 -1.39517 0.227314 0.326594 -1.35887 -0.265521 
0.218206 -1.35073 -0.129085 0.248269 -1.41429 -0.201621 0.124891 -1.3376 0.152992 
0.311938 -1.29152 0.502013 0.0915025 -1.33727 -0.219798 1.00551 -1.41418 0.47296 
0.234135 -1.40735 0.202618 0.218265 -1.34163 -0.060293 0.40344 -1.35846 -0.282322 
0.150969 -1.32353 -0.00109399 0.582366 -1.41374 0.215356 0.469034 -1.4131 0.144605 
0.452383 -1.28905 0.341046 0.273918 -1.35694 0.322749 0.194342 -1.36247 0.157597 
0.31155 -1.34571 0.270414 0.802472 -1.4127 -0.226475 0.190254 -1.38808 0.264682 
0.356562 -1.34235 -0.0620811 0.161686 -1.30576 -0.120812 0.394482 -1.41526 -0.141415 
0.293216 -1.35425 -0.08737 0.465468 -1.33983 0.396042 0.479191 -1.25489 0.394891 
0.297899 -1.35989 -0.022154 0.358517 -1.34946 0.0162637 0.800827 -1.29753 -0.212183 
0.378972 -1.36167 0.155173 0.336252 -1.3453 -0.179579 0.352633 -1.29995 0.13195 
0.377627 -1.29363 0.256158 0.347414 -1.33269 0.211639 0.526033 -1.23577 0.436688 
0.4479 -1.29513 0.108877 0.734816 -1.2592 -0.210332 1.05806 -1.36701 -0.147669 
0.310292 -1.30423 0.00397506 0.443815 -1.30486 -0.0198084 0.836504 -1.41477 -0.140677 
0.613584 -1.3623 -0.0114239 0.650026 -1.36313 0.275159 0.501568 -1.35073 0.244416 
0.518382 -1.26066 0.345295 1.14795 -1.36797 0.380267 0.628719 -1.36886 -0.0745962 
1.12049 -1.28376 -0.219208 0.725226 -1.29673 -0.116436 0.853659 -1.32462 -0.107698 
0.686974 -1.36359 -0.0514798 0.746379 -1.34158 -0.00648343 0.897883 -1.35459 -0.0555693 
1.05 -1.23609 0.46753 0.635938 -1.31483 0.0923122 0.841095 -1.41501 0.254091 
0.652712 -1.25796 -0.0945136 0.895576 -1.35378 0.0897965 1.09821 -1.31892 -0.00100487 
1.01076 -1.31111 0.00852253 0.813334 -1.3707 0.0466107 0.753501 -1.33955 0.101939 
0.695675 -1.29826 -0.0351963 1.05051 -1.3498 0.154973 0.854849 -1.41217 0.0913312 
1.18047 -1.23147 0.410086 0.994566 -1.29002 -0.106101 1.09761 -1.40835 0.172981 
0.963305 -1.37555 -0.036715 0.971543 -1.3163 0.0849826 0.859345 -1.20945 0.455512 
0.0341698 -1.37736 -0.227662 0.0314947 -1.41421 -0.173371 0.0354917 -1.41021 0.46789 
0.0724297 -1.41424 0.307733 0.0839088 -1.37142 0.528368 0.0998822 -1.41553 0.47962 
0.0769899 -1.41064 -0.339146 0.16691 -1.39477 -0.39495 0.384436 -1.36054 -0.403687 
0.033625 -1.41208 -0.285894 0.051359 -1.41294 0.0665747 0.264817 -1.4091 0.47098 
0.0355949 -1.41055 0.363909 0.240163 -1.4087 0.370413 0.142713 -1.41182 0.527103 
0.301525 -1.35421 -0.332119 0.14292 -1.41429 -0.33147 0.145812 -1.41471 -0.269132 
0.640481 -1.41013 -0.320213 0.424304 -1.41293 -0.237066 0.115857 -1.41367 0.0604899 
0.0974817 -1.34393 0.422107 0.392091 -1.33181 0.529311 0.109644 -1.35189 0.315555 
0.500967 -1.4062 0.400724 0.175041 -1.37138 0.0534128 0.310248 -1.40789 -0.168351 
0.292571 -1.41419 0.0897267 0.209835 -1.40941 -0.093067 0.355231 -1.34887 0.469567 
0.31673 -1.32228 0.415514 0.29149 -1.40986 0.249617 0.713837 -1.35034 0.518638 
0.207191 -1.3518 0.332006 0.411028 -1.35008 0.349657 0.453628 -1.34855 -0.224229 
0.383535 -1.35579 -0.218954 0.0654853 -1.35875 0.109052 0.455352 -1.40706 -0.173033 
0.24324 -1.3527 0.267293 0.263641 -1.35817 0.128563 0.420567 -1.3538 0.450584 
0.336718 -1.32093 -0.122279 0.457304 -1.41043 0.04989 0.621741 -1.28546 -0.381591 
0.523516 -1.29205 -0.290434 0.569911 -1.41475 0.0649337 0.51885 -1.28589 0.48957 
0.648229 -1.41098 0.225386 0.550423 -1.35132 -0.296659 0.456621 -1.41397 0.209142 
0.680604 -1.36145 0.394766 1.07274 -1.29133 -0.269898 0.462996 -1.28391 -0.0797507 
0.427994 -1.34142 -0.0860396 0.501921 -1.32634 0.0149021 0.438332 -1.34184 0.0377622 
0.529346 -1.33116 0.355559 0.571477 -1.28973 0.535691 0.942797 -1.25478 0.531367 
[...]
POINT_DATA 1274
FIELD FieldData 10
VELOCITY 3 1274 double
-2.7825235281e-05 -2.3884089287e-06 -0.00016947991607 -0.00020429572993 3.5517236274e-05 -2.9601958547e-06 -0.00018112514368 -4.4461715962e-05 0.00010106009859 
1.5615116447e-06 -9.4171746279e-05 0.00010128421079 -9.0804074752e-05 -3.0414196842e-05 3.356393576e-05 -0.00016775803061 0.00017302077839 6.1858980794e-05 
-0.00025756350985 -4.8439172222e-05 -7.1134979454e-06 -0.00028921508673 -1.9275643952e-06 -0.00015260249797 -1.6131344354e-05 4.8835098557e-05 -0.00018643510585 
4.1695298911e-05 -5.1529741948e-05 -7.1545512879e-05 -0.00014266494325 3.3558310824e-05 6.910227998e-06 -0.00022026894474 -0.00027099349149 -9.9512703574e-05 
1.5424603419e-06 -9.5435829943e-05 3.6375818306e-05 -0.00010538118594 1.4689967845e-05 2.7100863548e-06 -9.0161846448e-05 -5.040002715e-05 0.00010880424336 
-2.1608038779e-05 4.6368902872e-05 -2.3613073086e-05 -3.2788365374e-05 7.241361756e-05 -4.3012292585e-05 -0.00021396781198 -9.2074564026e-05 4.9959636845e-05 
-6.8664252389e-05 -0.0001779901345 -0.00016605284487 -0.00010549275364 0.00010403569529 7.4704298897e-05 0.0001887331654 -9.9648294759e-05 -9.9732271603e-05 
7.060914691e-05 -2.6216224637e-05 -0.00019786583843 -1.0229270546e-05 -2.5396594599e-05 0.00010451224424 -0.000155067531 -4.8182854104e-05 0.00017691196159 
-0.00011971895955 -0.000108229248 0.0002257544503 -0.00014071179106 -1.6536676676e-05 5.9684421588e-05 -4.2503359203e-05 -0.00011878561477 -9.9537974594e-06 
-0.00031640330047 -8.009916149e-05 1.8645435448e-05 -0.00012795452721 -8.6695851482e-05 9.536536209e-05 -0.00035559831865 -6.3403789896e-05 -3.8762977167e-05 
-0.00018568696289 -3.8438269179e-05 0.00020739627591 1.6719345397e-05 6.0120984896e-05 -0.00012599125539 -0.00025274578335 -0.00016611906797 -2.3343637004e-05 
9.4537097161e-05 -0.0002010887537 -2.8369041521e-05 0.0001911030869 1.9039282262e-05 -1.384798674e-05 4.3930443016e-05 -0.00018044641823 9.5147999825e-06 
-0.00013492877954 -0.00019016747156 -0.00016352986782 -9.6388372433e-05 -0.00023387745479 -2.5016108108e-05 -4.100722432e-05 -0.00011109544568 -4.7351656623e-05 
0.00041425389417 -0.00025422291575 0.00028648195683 9.6159179743e-06 -0.0002287130743 -2.2011252596e-05 -4.7846649796e-05 4.1239926756e-05 6.1205969086e-06 
-0.00012575026176 -4.6850677863e-06 -7.5854768039e-05 0.00010276920811 -2.0033149474e-05 -0.00013919908715 -0.00019203261193 9.256821089e-06 0.00030057385872 
0.00034788360929 -0.00019523150789 0.00014487590891 -5.5304473554e-05 -0.00014919717425 5.8953915594e-05 -0.00041072994506 -5.8876386108e-05 0.00018072660077 
-0.0025501486536 -0.0023366684895 -0.0090435249872 -5.9106147182e-05 -4.7151730496e-05 -2.4906091395e-05 3.1609742257e-05 -7.4939025505e-05 -7.4290063909e-05 
7.2348412846e-06 -0.00034904920478 0.00010092044622 -0.00015111004717 -6.7151556031e-05 -8.9442104428e-05 -0.00016537472626 7.8635889428e-05 3.3506837536e-05 
-6.1203943686e-05 -9.6700668721e-05 0.00016842691894 -0.00010285972478 -2.7041656192e-05 -8.2133539963e-05 8.4729802957e-07 -5.9003462194e-06 1.6960528736e-05 
-1.0499849066e-05 6.7114832096e-06 3.944870133e-06 -0.00012805720548 6.538690907e-06 0.00015347625046 -2.4286377996e-05 -6.5856796e-05 0.00013788399314 
-0.00011153292646 1.4314565282e-05 9.9384420319e-05 -0.00020136163102 -0.00012143189459 -4.8334047172e-05 -0.00029818209985 -4.1049913231e-05 2.3208093255e-06 
1.0447068436e-05 -3.6166174782e-05 0.00010197904768 -0.0001142604056 -0.00021584544821 5.9152427303e-05 -0.0032806751709 -0.0050044980339 -0.0056854749082 
-0.00025045485469 3.9266164794e-05 1.1425515628e-05 -4.7328542523e-05 4.3508521426e-05 0.0001305839425 -7.4092922877e-05 2.536923283e-05 -8.3583583888e-05 
-7.224244865e-05 -3.8319960288e-05 4.8723075612e-05 -0.00022209723116 5.6135109594e-05 0.0001516516976 -0.00019626669153 1.7851567971e-06 -4.0650263735e-05 
1.4577300164e-05 -3.0454569395e-05 -0.00010777739601 -0.00017510663564 6.9792112094e-05 -1.3226660608e-05 -1.2676650705e-05 -6.8330190025e-05 -6.5423158477e-05 
-9.9423232628e-05 1.8417961567e-05 8.0013375154e-05 -0.00065575203275 0.00013213491221 0.00023955055092 7.2498600618e-05 -4.3072979511e-05 -4.3999651548e-06 
4.6732594595e-06 4.9383293021e-05 0.00015144770495 0.00026696044481 7.8560310286e-05 4.2015749504e-05 -0.00024622525621 7.0656192088e-05 6.188657083e-05 
-0.00028545042759 -0.00010768047282 -8.2744938342e-05 -0.00024580087414 -0.00014755503569 0.00011717222724 -4.5602212483e-05 -6.8361101288e-05 4.2866878935e-05 
-6.7150173335e-05 -0.00017058351648 -8.7718795054e-05 -0.00014946362437 -4.1456323311e-05 -8.7221361489e-05 0.0002091404483 -0.00011691707733 -7.5573356126e-05 
5.8535064215e-05 -0.00011777371482 -7.0676212825e-06 8.6638019079e-05 -0.00013377440159 7.4669289265e-05 0.00011854100249 -0.00022516984783 -2.1633599849e-05 
-0.0069490305159 -0.00047938187589 -0.0065789558614 -9.1394444997e-05 -1.0367159687e-05 -6.7655862616e-06 -0.00012408209625 -1.1097741444e-05 -2.1196753163e-05 
-4.1099392362e-05 -0.0003265181485 -0.00014200319963 8.8651058243e-06 5.697401229e-05 0.00014752491945 -4.4629098118e-05 -0.00019376054594 -0.00016489105773 
-1.779204793e-06 7.5461786252e-05 -3.2903946721e-05 0.00018688401944 -6.977395086e-05 0.00015363298243 4.0729924737e-05 -1.941981006e-05 -0.00011198505095 
-8.6253872336e-05 5.4275541721e-06 -1.3333833834e-05 -0.00028848084057 3.9389880086e-05 5.0158860578e-05 1.2592151737e-05 -6.1041888998e-05 -0.00015947788333 
-0.000238281421 0.00011652776955 6.8179060265e-05 -8.1158796077e-05 -0.00022351568469 -4.2554631023e-05 -1.4674305981e-05 -6.0926283149e-05 -0.00019418073737 
4.9149853618e-06 -0.0003871589516 -9.6608405217e-05 -2.3187089345e-06 3.946084689e-05 -0.00016755720963 -1.4935222081e-05 -5.4400880856e-06 -0.00016135893503 
-2.7351669961e-05 -0.00024114777432 9.9273650269e-05 -2.5265194972e-05 -1.8310677393e-05 -0.00019454244633 -0.00011894065247 -8.3377431344e-06 1.034784994e-05 
6.2321204187e-05 -7.7691706318e-05 0.00010198838566 -0.00010516444418 -0.00032056531224 7.4573504913e-05 -0.00017573411515 -9.1001371917e-05 6.2258464709e-05 
-6.4202220221e-06 -1.3796330041e-05 -5.1960167237e-06 3.2389637525e-05 -0.00012440665638 -0.00018588125742 -6.7329883001e-05 -0.00010653348633 -3.0159784163e-05 
-1.5212196192e-05 1.3675189958e-05 -3.3206919591e-05 -3.8010954958e-05 0.00012200882156 8.760179044e-06 -7.1347824517e-06 -0.00025734226449 -0.00015454080478 
9.3417977619e-05 -0.00038582923091 -0.00021135532854 0.00013194765544 1.5647479379e-05 -0.00020639449785 -0.00020804451719 -3.0884394002e-05 -1.5516301982e-05 
-0.00014230290124 -9.0242837564e-05 0.00012509145229 -7.8944403071e-05 2.4269764487e-06 6.4477699406e-05 -0.00012189099653 -4.93998949e-05 -7.6426631184e-05 
9.8824617472e-06 -4.4449757353e-05 -8.7297819122e-05 3.6072133792e-05 -6.2984364874e-05 -0.0001282006194 -0.00031188736389 -0.00021123175318 0.00036692963842 
-0.00042792269458 -0.00012568682775 4.1036910767e-05 9.1846732603e-05 -0.00023225051603 -0.00021937482817 -0.00011565164415 5.7165998622e-05 -6.9957495654e-05 
-0.00015526418254 -0.00014254835558 -7.9822860703e-05 3.4439747336e-05 -3.2017215154e-05 -1.0225409718e-05 -0.00033628436927 -0.00017162962487 -0.00035193840085 
-7.4709694546e-05 -0.00022101644532 1.6065546517e-05 -1.8411005599e-05 -8.4026301423e-06 3.1505686847e-05 1.111137638e-05 7.5039679129e-05 -0.00010829476926 
2.4937773071e-05 -2.3324979221e-05 -2.7623396584e-05 -5.1840224359e-06 3.9866369895e-05 0.00015162793851 -3.9475403556e-05 -5.8714885008e-05 -3.6811497896e-05 
-2.638571989e-05 4.0038741893e-05 -0.0001322092192 8.5957064975e-05 1.9815564611e-05 -1.5985412417e-06 0.0023023615914 -0.0012598408348 -0.00057328034064 
-1.1014312154e-05 1.4710784363e-05 -1.5566487008e-05 1.7581660697e-05 3.9045266192e-05 -5.3972585913e-05 -6.4572766891e-05 -3.1498402116e-05 -1.4516443137e-05 
0.00010322209519 7.1912975447e-06 5.6667348739e-05 -2.1998847815e-05 5.201902113e-06 1.1210389962e-05 -4.2235509395e-05 -4.8505882729e-05 -0.00011977421182 
3.2926568023e-05 -9.7811710115e-05 -3.9342244474e-05 -1.073893765e-05 1.1447450034e-05 -2.8142866576e-05 -0.00022505650218 -1.3608703395e-05 -6.1583651539e-05 
-8.6726355714e-05 0.00016608555345 9.465830197e-05 -8.6366800268e-05 7.7896355919e-05 -2.9668793686e-05 -0.00011192002655 -7.6639073174e-05 -3.8837730813e-05 
-0.00011287725169 1.0650310609e-05 2.4793324676e-05 -0.00012267353151 -5.6796286062e-05 9.5944248171e-05 4.7998154464e-05 -2.5123080394e-05 -1.8082270956e-05 
-9.0017818643e-05 1.3559835568e-05 -6.9788352703e-05 -0.00017219594098 -4.2409529113e-05 -3.6524652609e-05 8.6180862362e-05 -0.00026005739025 -0.00034550173709 
-0.00012411777535 5.881570131e-06 0.00013871051667 0.00015953342765 -0.00010057817406 -4.9337996815e-05 -0.00011494549079 -2.254756946e-05 3.29605825e-05 
-8.4722870128e-05 5.745060201e-05 -3.9729734955e-05 -8.5442987259e-05 5.041831504e-05 5.5407449916e-05 9.1000220435e-05 -8.6837943896e-05 -2.487889302e-05 
0.0002542067746 -0.00044489185284 0.00024767504469 -0.00010154379848 -2.3777805376e-06 8.379250701e-05 -4.0357958903e-05 -5.230209129e-05 -5.0957702171e-06 
-0.00011380421077 7.5992156861e-05 -5.0525918668e-06 -0.00019667150578 0.00013063863942 0.00024487689471 -0.00028007954533 8.1255966441e-05 -6.1954571206e-05 
-0.00011208740285 -6.0054021045e-06 1.6171631251e-05 -0.00032209190372 -0.0010510355186 0.0025494657161 -0.00015216936801 1.2073953785e-05 2.3892616906e-05 
0.00023083091818 -0.00019387476557 0.00018489657609 -0.00027796571794 -6.1355552873e-05 -0.00020487012548 -8.1437979215e-05 -8.4743903632e-05 5.5324657443e-05 
-9.7625985163e-05 5.6249919445e-05 -8.9770988103e-05 7.6485497353e-06 -2.5409215437e-05 -5.99702222e-05 -0.00014355779551 -6.2309468691e-05 -6.8709842264e-05 
7.8462060447e-06 -0.00015906983442 2.3614773233e-05 -3.3842387285e-06 -8.0946127126e-05 3.9282704688e-05 5.9094160199e-05 4.4934253734e-05 6.6189643557e-05 
-4.5747264445e-05 0.00016993551587 5.5941926294e-05 -8.3538224094e-06 -2.3671091497e-05 -1.1838560656e-05 0.00033100591556 -0.00028425287591 -0.00014542800445 
7.769074483e-06 -1.0187482952e-06 6.2740189998e-06 3.9590033504e-05 -4.4850280494e-05 0.00015993540526 -0.020366611324 -0.041125193802 -0.10999035526 
-8.7846682039e-07 -4.9464149079e-05 -0.00015951864771 -8.134952622e-05 -2.9016742729e-05 -2.6617674588e-05 7.059731733e-05 -1.7854677023e-05 -0.00017439441744 
-3.0824667284e-05 -3.8909617175e-05 -5.1977160576e-05 -0.00025736123152 -7.8444237338e-05 8.8169746142e-05 4.3308720701e-07 -2.7373180378e-05 0.00013952487005 
0.00011549929735 3.6831254394e-05 -0.00021259253808 6.1678845287e-05 -0.00010972322643 -8.2717937452e-05 -2.2575684481e-05 -4.9160023363e-05 0.00023649882555 
-8.786922272e-05 -0.00013844465409 -0.0002062717751 -0.00024137921917 -0.00062665222889 -0.00056049008474 -7.7946622141e-05 -1.9624576014e-05 0.00012403279659 
5.5639919165e-05 -0.00010159515224 -5.8208801473e-06 -0.00013931671457 -2.8626824899e-05 3.0205116052e-05 -0.00030249289522 -0.0002443705051 -0.00040814299905 
-1.3631238564e-05 8.8565654787e-05 -0.00017582815996 -6.6783223426e-05 -7.4003854815e-05 7.3527988694e-05 0.00011067111493 0.00015779865481 0.00014584822962 
2.7503084959e-05 -0.0001572898475 -0.00023591901406 -3.1066888471e-05 -0.00013765299959 7.6091521605e-05 -0.00010515776977 -0.00015409622396 -0.00011007209636 
-0.00020027759565 -0.00068479149036 -0.00027486112279 9.5569535241e-05 0.00019005473383 -0.00018544664168 4.4178504344e-07 3.1273574553e-05 1.1031793429e-05 
6.5142570265e-06 -2.1129548061e-05 -6.5234678848e-05 -7.6852071086e-05 -3.9173581302e-06 -2.2836492921e-05 5.6465851425e-06 -0.00023500723196 0.00016776148603 
7.4585802018e-05 -0.00019274335935 -0.00013599210454 -8.8695865641e-07 -1.645331446e-05 6.697667366e-05 1.90734574e-05 2.1658647212e-05 2.5773613442e-05 
-4.8244927951e-06 5.5123079056e-05 -0.00016899193455 -8.4637583388e-05 -3.2615935605e-06 -7.8678701396e-06 -0.00029214855025 0.00017328444906 -0.00018717233912 
-9.1616692053e-05 -1.9251768941e-05 2.7342042078e-05 -1.0019980686e-05 6.2675660277e-05 6.7066917438e-06 -2.8690774808e-05 -2.8817761708e-05 -4.9639552159e-05 
3.6373182685e-05 -7.7425745779e-05 6.3357559362e-05 -0.00061799765895 7.3975391864e-12 0.00080473983805 -0.00016658591404 5.4339510349e-05 1.4454707067e-05 
-7.1492311775e-05 -4.7032713703e-05 -4.9673723407e-05 -6.3199490801e-05 0.00017246410307 -6.3571708606e-05 -0.00012295080765 -4.2904688242e-06 1.3958223158e-05 
-0.00013311708162 1.3955576386e-05 -9.6576310806e-05 0.00014273733615 -0.00017300228467 9.2008896028e-05 -4.3693231465e-05 -7.9489054619e-05 7.531125049e-05 
-4.2912779751e-05 -7.6847646043e-05 -9.4870117313e-06 -1.8989055436e-05 1.456931918e-05 0.00011763207315 -0.00012114090387 3.64902431e-05 3.6978940047e-05 
-0.00028336021336 -2.418393973e-05 3.6513850686e-05 -7.9796357645e-05 3.2263870891e-05 1.9636765837e-05 -0.00016892452683 2.0361534407e-05 -1.1627350565e-05 
-0.00014222070394 -4.3997094168e-05 2.469433263e-05 7.1259934215e-07 6.3974162753e-06 -0.00023381741419 2.7661609816e-05 -0.00017934630668 2.3585664705e-06 
0.00031143540153 -9.8788183484e-05 -0.00013466224395 6.2363024733e-05 2.4217830926e-06 1.9184878624e-05 7.3408942418e-05 -2.9259292558e-05 0.0002280715045 
0.00011276305937 -5.8736960052e-05 1.6538962898e-05 -0.00020004255943 -5.6727720075e-05 -6.6178332141e-05 -0.00012211349806 -7.2194907913e-05 3.2836941071e-05 
-8.5624380517e-05 -1.1520508937e-05 1.9796269853e-05 -0.00024365197754 -1.7761505906e-05 -4.0037056951e-05 0.00013305536584 -0.00020724785597 -4.8374106029e-05 
-7.7311620039e-05 -1.12314463e-05 1.862310402e-05 3.2231304135e-05 -0.00014968840545 0.00010845104805 -0.00010703775604 -7.4804687485e-06 -4.3874296034e-05 
-0.0001292301009 6.5203826671e-05 -1.8521288381e-05 -6.3568880412e-05 -2.9473233059e-05 2.8490380355e-05 -0.00010190398071 -0.00015078500842 5.4432818423e-05 
0.00011839988014 -6.9761428891e-05 -1.086820691e-06 9.0185855797e-05 -0.00021529963134 -7.7975035259e-05 -2.3378138312e-05 -4.9781132074e-05 7.4814373965e-05 
-0.00015192765383 5.8810702508e-05 -6.544943388e-05 -0.00032928562105 9.260573804e-05 -5.037043458e-06 -2.8274257583e-05 -2.9728015493e-06 5.6558400034e-05 
-2.5793369678e-06 -6.723318901e-05 -0.00019629680804 -1.7325638163e-05 -0.00012586298706 0.00014978233349 -0.00016860567481 -7.2434400166e-05 1.1232550308e-05 
-0.00013171624258 -0.00024975004025 -1.959707656e-05 7.9329020339e-05 1.5614131612e-05 5.9448920607e-05 -3.4250164502e-05 -0.00010306874853 -7.6117554771e-05 
6.0050385204e-05 -0.00018119076627 -0.00011522937755 9.6482106839e-05 -0.00012229185844 -0.00031282225897 -0.00012110834012 -3.1331323994e-05 0.00018215494995 
2.836605254e-05 5.1636328824e-05 -3.4860342977e-05 -0.00034339198848 -2.2506910846e-05 6.6253489601e-05 -2.5598721128e-05 3.7796553651e-06 3.9540867998e-05 
0.00010597226536 -1.3036262448e-05 4.0820270764e-05 5.6994161577e-05 1.5091323534e-05 -3.4042226857e-05 -0.00032621734969 7.8423083508e-06 -7.7217883112e-05 
0.00015465326771 -0.00013791120221 -9.9944606407e-05 -9.0455150039e-05 -1.0795536533e-05 3.0825403141e-05 -6.6625359425e-05 -0.00024705821211 -0.00024541506842 
8.3676363601e-06 -0.00010446272389 -2.22043475e-05 0.00013697064051 -0.00010155619089 6.1038897405e-05 -0.00015527413956 -4.901826084e-05 0.00026743290463 
-0.00014505924904 -9.1131799818e-05 -0.00022307545452 5.0106213294e-05 0.00010100630008 -0.00014519648807 -3.3862552409e-06 1.0288897137e-05 0.00019921740591 
0.00018180048271 -0.00025828392624 6.3305356969e-06 6.5368257339e-05 -8.1740569334e-05 0.00021145640224 -0.00037614633565 -3.8223808585e-05 -0.00025662631843 
-0.00016925144648 -7.5587455886e-05 0.00011300935673 -4.13108072e-05 0.00010225191446 8.8653420995e-06 -0.00026484915591 -0.00017668449214 -0.0003965323532 
1.2790530337e-05 -5.1889014136e-05 -0.00018853078789 -0.00013459685333 0.00016824136814 -6.8155195366e-05 -1.6254830692e-05 -3.0419458147e-06 -8.7423289132e-06 
-5.3744686453e-05 3.5150293995e-12 0.00021754223253 -0.00018680157052 8.657744578e-05 -3.5821532601e-05 0.0001401779966 4.0979722561e-05 0.00039835888544 
8.5014897531e-05 2.0836021252e-05 -9.2894087147e-05 7.4613848886e-06 7.9451905268e-05 1.0648472789e-06 7.8962960024e-07 3.0765167845e-05 -5.6129867619e-06 
3.9880295565e-05 7.2079606689e-06 -3.3885241042e-05 -4.4825934284e-05 -1.1629972139e-05 -1.829657072e-05 -0.00015583824524 -2.7051699073e-05 -7.6934190934e-05 
2.0590575389e-05 -1.2877099638e-06 0.00014201364434 0.00014221671379 -3.7003524092e-06 9.8017474413e-05 -0.00017787326238 -9.5592110314e-06 0.00024572480356 
2.5330673842e-05 -0.00015640922443 0.00026774215359 5.1383623444e-06 -7.6713982742e-05 -4.0519906048e-05 -0.00012484249104 0.00011578851314 4.9029185904e-05 
-0.00021822909711 -3.3851642782e-06 7.086829637e-05 2.3891139362e-05 -2.1836720866e-05 1.5942912824e-05 -0.00011898598656 2.4014474714e-12 -0.00011503410501 
4.3944398341e-06 2.7344543687e-05 -3.0263146791e-05 -9.0727352369e-05 -9.3580235497e-07 -1.9593812434e-05 2.0453940002e-06 -1.0162904006e-05 0.00011842107669 
4.740642003e-05 -1.0167294516e-06 -0.00023487963206 -1.9030829645e-05 -4.486642022e-05 -0.00013127047722 2.170711434e-05 2.1198529551e-05 -2.9647397486e-06 
8.3598779138e-05 -2.3597858091e-05 -3.1528436246e-05 -3.2246483337e-05 -0.00021081806812 1.6777295918e-05 -0.00015785665949 -5.3005850616e-05 0.00012036678145 
-6.7874998767e-05 3.2893792025e-05 1.6362970375e-05 -5.0492534103e-05 -2.0237072606e-06 5.2993337423e-05 4.5238119408e-05 3.0377564284e-06 0.00012608182443 
-9.2288105009e-05 2.7268637295e-05 7.9939039775e-05 -0.0003171829953 -4.5024832441e-05 1.0940015834e-06 0.00010483256602 8.3340877383e-05 0.00015892137208 
5.8298247063e-05 4.1400555131e-05 7.2689714549e-05 -8.3968010218e-05 3.2734369077e-05 -7.2191074859e-05 -7.7701961894e-05 -2.8195234571e-05 1.2652073286e-05 
-0.00021915466135 -1.2752090863e-06 -2.1376119022e-05 -4.1635219643e-05 1.3261365878e-05 -1.979360604e-06 -0.00017910678399 -6.8551802001e-05 8.5946679996e-05 
8.1579015819e-05 -7.0880055017e-05 -6.8882503593e-05 -0.00016938820965 -0.00016933686409 0.00017006073864 -0.058882152055 -0.054053596235 -0.078288816671 
-0.00090992824349 -0.00058208539168 0.00079242546272 8.3751873064e-05 -1.9803202394e-05 -7.601244657e-05 -0.00031634306728 -7.5402272012e-06 0.00016593336328 
-0.00029046682702 4.5102066494e-05 9.441088321e-05 -6.4910024623e-05 -0.00014392293767 4.5651483887e-05 -7.3485017066e-05 -6.1149447995e-05 -8.3545961191e-05 
-0.00015089388353 4.0985805665e-05 9.4952271412e-05 -0.00010830812813 -0.0001419295333 5.0576261419e-05 -0.00033072487906 0.00016393761214 -4.6806680011e-05 
-0.00026138009136 6.0544327108e-05 0.00016864332649 3.8792497893e-05 5.8045936909e-06 -5.9872279054e-05 4.3053944727e-07 1.9041834302e-05 -2.6765527128e-05 
-0.00019442834349 -0.00027408287256 3.4939746452e-05 -0.00010222757761 -6.1215960921e-05 5.3320340289e-05 5.5848008488e-06 -0.00019266130436 -6.4478870339e-06 
-8.7708622857e-05 1.7371123289e-06 2.9177778556e-05 -0.00021494417145 -0.00013237237226 3.915360499e-05 6.1011320493e-05 5.046856127e-05 -1.5052183004e-05 
0.00010343140169 -0.0001196968746 -0.00030408809476 -0.00020595114746 -0.00016937855581 -0.00021555714679 -0.00012625853537 -9.4625394371e-05 3.7946200616e-05 
-3.1110403229e-06 4.9391325533e-05 -0.00012816110165 -0.00011126941305 1.8831016652e-12 4.9845776732e-05 5.6098371308e-05 -8.28312486e-05 -0.00023292547715 
-5.6628896299e-05 0.00019355710475 -2.1389194953e-05 -0.00038329869236 -0.00013468259008 0.00010408942994 2.7457399841e-05 7.4211437544e-06 -8.262577426e-05 
-0.00063286896622 -0.00056146708986 0.0017843117034 -3.3409265461e-05 -6.6167358219e-05 -5.2220280764e-06 -0.00010170548384 -5.2297169878e-05 -1.1070394675e-05 
0.00017628355224 3.2891034934e-05 -9.0094387641e-05 8.8393451097e-06 9.2758850343e-05 -7.0612557133e-05 -9.0381113287e-05 -3.9473193818e-06 -3.5222807651e-05 