# vtk DataFile Version 4.1
vtk output
ASCII
DATASET UNSTRUCTURED_GRID
POINTS 1274 float
0.27372 -1.29442 -0.0531349 0.273962 -1.30223 0.0958285 0.279965 -1.29496 0.316393 
0.157864 -1.3163 -0.210665 0.29844 -1.29132 0.178044 0.41169 -1.23462 -0.0671603 
0.381839 -1.29105 0.32205 0.470866 -1.23557 0.493433 0.512339 -1.2438 -0.00743182 
0.637223 -1.25316 -0.00543275 0.539081 -1.34678 0.187662 0.641873 -1.2224 0.43393 
0.852511 -1.27225 -0.151314 0.843556 -1.25442 -0.0828645 0.65751 -1.2957 0.158222 
0.755515 -1.2758 0.265793 0.696026 -1.26984 0.21896 0.794437 -1.2076 -0.0445024 
0.637064 -1.20652 -0.0553315 0.67241 -1.34643 0.00775392 0.715141 -1.19028 -0.0821951 
0.690794 -1.30809 0.27824 0.418738 -1.23158 0.312501 0.615457 -1.27198 0.224628 
0.91293 -1.23654 -0.0769345 0.329887 -1.23537 0.172408 0.657599 -1.20754 0.363218 
0.814302 -1.1948 -0.112925 0.921488 -1.31387 -0.000512318 0.823527 -1.2291 0.0380536 
0.972072 -1.20847 -0.0153857 0.656876 -1.22818 0.0470876 0.557973 -1.21853 0.378221 
1.08211 -1.22189 -0.285037 1.03337 -1.2415 -0.141619 0.503485 -1.22068 0.281037 
0.790163 -1.27856 -0.0124124 0.634909 -1.27387 0.285635 0.405275 -1.25049 0.137892 
0.946406 -1.20162 0.0544282 0.851637 -1.22616 -0.20853 0.798313 -1.23308 0.160101 
0.838511 -1.21203 0.108927 0.74836 -1.22036 0.216608 0.903726 -1.24339 -0.00590177 
0.986206 -1.23665 -0.235933 0.891875 -1.25222 0.29143 0.887667 -1.21801 0.229886 
0.452829 -1.29901 -0.306453 0.167892 -1.33251 0.280792 0.145203 -1.35876 -0.0654575 
0.0370368 -1.33431 0.173514 0.286629 -1.3424 0.471745 0.255955 -1.3382 0.384945 
0.239825 -1.31304 0.164406 0.379815 -1.35335 0.285204 0.151061 -1.34827 -0.274929 
0.359415 -1.41001 0.0556165 0.612047 -1.28943 -0.213152 0.21784 -1.35344 -0.222304 
0.399628 -1.34728 -0.151453 0.371815 -1.35503 0.404503 0.399792 -1.29299 0.394666 
0.278231 -1.34829 0.208889 0.21357 -1.33797 0.00529674 0.485357 -1.2659 -0.187014 
0.413566 -1.36083 -0.0237582 0.583542 -1.34513 0.299788 0.433373 -1.28271 -0.142572 
0.304302 -1.28409 0.243005 0.55274 -1.36031 -0.0196909 0.376957 -1.27365 0.194575 
0.331358 -1.29831 0.061839 0.330771 -1.26206 0.445535 0.508681 -1.22742 -0.0830522 
0.62387 -1.4128 0.100057 0.533951 -1.25006 -0.238524 0.217062 -1.28043 -0.185347 
0.56893 -1.35611 0.0411785 0.541088 -1.3014 -0.0341348 0.328649 -1.26195 0.297402 
0.451796 -1.28824 0.450499 0.579896 -1.33502 0.469886 0.446625 -1.28064 0.263906 
0.510939 -1.29896 0.291454 0.452067 -1.36107 0.112175 0.615091 -1.30337 -0.0472877 
0.643482 -1.22708 -0.214093 0.972574 -1.28495 -0.284844 0.570252 -1.28599 0.172359 
0.475942 -1.28651 -0.250316 0.764715 -1.28924 0.343823 0.645703 -1.32723 0.22058 
0.577226 -1.23799 -0.0533932 0.999485 -1.26683 -0.0446624 0.741861 -1.25392 -0.0604072 
0.684735 -1.29056 0.0495718 0.876202 -1.34911 0.161661 0.603142 -1.25487 0.0801847 
0.780439 -1.23224 0.387972 0.791369 -1.24184 0.464668 0.545499 -1.26302 0.233084 
0.826117 -1.35945 0.207794 0.621936 -1.22478 -0.144213 0.687888 -1.23191 -0.0328563 
0.553022 -1.24033 0.123918 0.732423 -1.23688 0.0214355 0.808419 -1.30042 0.178079 
0.829071 -1.24996 0.340529 0.681197 -1.26707 0.329833 0.809277 -1.22658 0.532537 
0.908184 -1.24307 -0.376632 0.76972 -1.30949 0.0489625 0.437938 -1.25594 0.192558 
0.740221 -1.21787 0.504934 1.16363 -1.22096 0.0120572 0.62889 -1.26763 0.530972 
0.734227 -1.22573 0.317601 0.705421 -1.24469 0.414732 0.579194 -1.24313 0.0157655 
0.958431 -1.29221 0.219664 1.10569 -1.23872 -0.167008 0.839104 -1.30517 0.0441974 
0.97708 -1.22578 -0.0923449 0.908496 -1.28979 0.0615822 0.615951 -1.23623 0.147736 
1.31866 -1.19537 0.526799 0.738733 -1.25584 0.161644 0.940985 -1.22499 0.193187 
0.952816 -1.20813 0.42301 1.21171 -1.26323 -0.182513 0.905239 -1.23222 0.0978269 
1.0454 -1.22567 -0.00793815 0.863879 -1.23334 0.171961 1.10098 -1.25809 -0.0318499 
0.963473 -1.26262 0.0317282 0.0867227 -1.41341 -0.246548 0.285907 -1.36074 -0.213012 
0.43004 -1.40919 -0.397639 0.0351687 -1.3596 0.315218 0.213256 -1.32108 0.482529 
0.09672 -1.40799 0.156749 0.216609 -1.34416 -0.402017 0.500864 -1.31866 -0.348175 
0.0871031 -1.35984 -0.38146 0.493824 -1.34764 0.459883 0.251058 -1.27894 0.529061 
0.147045 -1.35435 0.379365 0.241136 -1.41179 0.297678 0.0967195 -1.35815 -0.0124654 
0.276985 -1.31991 -0.156663 0.0801122 -1.35883 -0.288923 0.472635 -1.35386 0.309886 
0.348687 -1.40768 -0.029295 0.129639 -1.34353 0.230608 0.213352 -1.33453 0.0982161 
0.219701 -1.29562 0.291386 0.321281 -1.29144 -0.295114 0.270968 -1.34801 0.0403752 
0.422601 -1.31837 0.166301 0.0827426 -1.29259 0.215292 0.515572 -1.30026 0.419522 
0.893403 -1.30013 0.533049 0.546769 -1.35541 0.420438 0.240944 -1.29485 0.228635 
0.318263 -1.3552 0.156958 0.318841 -1.35428 0.0925965 0.367983 -1.28826 -0.232629 
0.520196 -1.33274 -0.241254 0.49286 -1.29279 0.203891 0.555387 -1.22462 0.519263 
0.64476 -1.28747 0.408287 0.777166 -1.34098 0.461568 0.424038 -1.34431 0.229126 
0.677024 -1.41468 0.136478 0.595226 -1.2217 -0.399396 0.601359 -1.35846 0.188478 
0.858399 -1.22573 -0.31881 0.391673 -1.29517 -0.298752 0.828531 -1.29953 0.283808 
0.759222 -1.28956 0.419784 0.335825 -1.28303 -0.171209 0.571333 -1.2762 0.288961 
0.670145 -1.27192 -0.166545 0.489994 -1.24944 0.145378 0.879231 -1.29197 0.21404 
0.970497 -1.38762 0.0885619 0.535734 -1.28035 0.0563999 0.994653 -1.25476 0.444113 
0.648807 -1.33023 0.34101 0.941742 -1.296 -0.0634545 0.675807 -1.20715 -0.269543 
0.725982 -1.22875 -0.144968 0.791372 -1.30412 -0.0805482 0.820753 -1.34975 -0.0450741 
0.739724 -1.31765 0.178938 0.703318 -1.3546 0.138912 0.859856 -1.29914 -0.02629 
1.0087 -1.24925 0.0868952 1.06204 -1.27474 0.038763 0.912517 -1.25079 -0.140656 
0.786864 -1.28866 0.115066 1.10899 -1.28365 0.395623 1.00432 -1.24679 0.188802 
0.81859 -1.24317 0.228986 0.699249 -1.25869 0.111096 0.931896 -1.36115 0.216979 
0.857221 -1.28509 0.11902 1.19595 -1.36075 0.117045 0.947241 -1.354 0.143501 
1.12381 -1.25875 -0.0977476 1.02663 -1.26074 0.275267 0.763487 -1.22416 0.0951377 
0.993286 -1.35328 0.196798 0.297602 -1.4153 -0.358797 0.199557 -1.37222 -0.327208 
0.0322035 -1.4135 -0.0344757 0.441461 -1.28067 0.531352 0.0339857 -1.41171 0.191254 
0.0879468 -1.3241 -0.10695 0.341336 -1.30591 -0.394437 0.0369046 -1.3622 0.0211471 
0.0444227 -1.34339 0.477855 0.346617 -1.40639 0.198477 0.151933 -1.41314 0.44443 
0.324049 -1.34687 0.532516 0.0881948 -1.39527 0.227194 0.326735 -1.35877 -0.265253 
0.218187 -1.35057 -0.129272 0.248986 -1.41429 -0.202217 0.125161 -1.33769 0.152886 
0.312026 -1.29143 0.502124 0.0915658 -1.33746 -0.219691 1.0058 -1.41418 0.472849 
0.234282 -1.40735 0.202633 0.21817 -1.3414 -0.0604891 0.403501 -1.3585 -0.282317 
0.151047 -1.32344 -0.00110375 0.582388 -1.41374 0.215168 0.469172 -1.4131 0.144567 
0.45295 -1.28906 0.341103 0.274218 -1.35684 0.322703 0.19462 -1.3625 0.157699 
0.311807 -1.34571 0.270316 0.802184 -1.4127 -0.226697 0.19037 -1.38794 0.264676 
0.356506 -1.34231 -0.0620563 0.16163 -1.30567 -0.120868 0.39446 -1.41526 -0.141612 
0.293119 -1.35417 -0.0873857 0.46577 -1.3397 0.396177 0.479481 -1.25472 0.394976 
0.297999 -1.35986 -0.022189 0.358829 -1.34947 0.0161922 0.80061 -1.29723 -0.212007 
0.379085 -1.36167 0.155178 0.336259 -1.34529 -0.179502 0.352871 -1.29991 0.132148 
0.377747 -1.29361 0.256127 0.347657 -1.33267 0.211536 0.52658 -1.23548 0.436426 
0.447801 -1.29508 0.109027 0.734678 -1.25876 -0.210303 1.05809 -1.36693 -0.147733 
0.310604 -1.30424 0.0039329 0.444193 -1.30492 -0.019699 0.835319 -1.41477 -0.140365 
0.613497 -1.36216 -0.0112496 0.650159 -1.36308 0.275042 0.501895 -1.3506 0.244388 
0.518619 -1.26023 0.345307 1.14793 -1.36802 0.380378 0.628287 -1.36829 -0.0734755 
1.12039 -1.28357 -0.219102 0.725337 -1.2962 -0.115658 0.854145 -1.32442 -0.107964 
0.687035 -1.36356 -0.0515221 0.746859 -1.34145 -0.00648116 0.898011 -1.35461 -0.0556644 
1.04965 -1.23559 0.467683 0.636014 -1.31495 0.092613 0.841323 -1.41501 0.254238 
0.652991 -1.2569 -0.0937065 0.895594 -1.35375 0.0894858 1.09837 -1.31876 -0.00066297 
1.01074 -1.31091 0.00850894 0.813153 -1.37043 0.0466025 0.753693 -1.33949 0.101725 
0.696104 -1.29752 -0.0341511 1.05067 -1.34987 0.155143 0.854866 -1.41217 0.0910007 
1.17372 -1.22938 0.405762 0.994427 -1.28973 -0.10652 1.09785 -1.40835 0.173162 
0.963449 -1.37551 -0.036799 0.971614 -1.31642 0.0850228 0.868625 -1.20685 0.465779 
0.0341698 -1.37747 -0.227491 0.0314949 -1.41421 -0.173125 0.0354915 -1.41021 0.467923 
0.0724889 -1.41424 0.307466 0.0840535 -1.3716 0.528368 0.0999231 -1.41553 0.479422 
0.0769179 -1.41064 -0.339098 0.166944 -1.39488 -0.394951 0.384671 -1.36029 -0.403687 
0.033625 -1.41208 -0.285789 0.0515187 -1.41294 0.066591 0.265034 -1.4091 0.470982 
0.0356097 -1.41055 0.363671 0.240031 -1.4087 0.370325 0.142987 -1.41182 0.52926 
0.301803 -1.35415 -0.332244 0.142855 -1.41429 -0.331474 0.14582 -1.41471 -0.269141 
0.64054 -1.41014 -0.320321 0.424308 -1.41293 -0.2371 0.116033 -1.41367 0.0606922 
0.0974654 -1.34397 0.422136 0.392195 -1.3318 0.529311 0.109643 -1.35192 0.315385 
0.501023 -1.4062 0.400872 0.175099 -1.37133 0.053627 0.310224 -1.40789 -0.168342 
0.292561 -1.41419 0.0897239 0.209912 -1.40907 -0.0931079 0.355515 -1.34878 0.469434 
0.31683 -1.32238 0.415532 0.291651 -1.40986 0.249613 0.715781 -1.34968 0.518513 
0.20746 -1.35187 0.331824 0.411469 -1.35001 0.349641 0.453543 -1.34852 -0.224242 
0.383446 -1.35575 -0.219 0.0655804 -1.35878 0.109121 0.455404 -1.40706 -0.173088 
0.243425 -1.35266 0.267304 0.263808 -1.35817 0.128546 0.420851 -1.35368 0.450444 
0.336664 -1.32084 -0.122239 0.457442 -1.41043 0.0497652 0.629681 -1.28 -0.371578 
0.524104 -1.29211 -0.290523 0.569952 -1.41475 0.06489 0.519697 -1.28588 0.489075 
0.64823 -1.41098 0.22532 0.550718 -1.35156 -0.296197 0.456658 -1.41397 0.209201 
0.680709 -1.36144 0.394688 1.07293 -1.29113 -0.270068 0.463167 -1.28398 -0.0797132 
0.428157 -1.34147 -0.086208 0.501932 -1.32646 0.0150275 0.438314 -1.34184 0.0378837 
0.529662 -1.33073 0.355536 0.57065 -1.28916 0.535691 0.942825 -1.25452 0.531367 
[...]
POINT_DATA 1274
FIELD FieldData 10
VELOCITY 3 1274 double
-5.9986055632e-06 4.9605623263e-05 -0.00030584408958 0.00031042018056 1.1491678881e-05 0.00026656521383 -0.00042255924853 5.2862228785e-05 0.00058384285649 
1.8088884668e-07 6.9122315405e-05 2.9463074007e-05 -0.00037768555546 -5.8653522799e-06 -0.00014207532319 -0.00019725480476 -0.0001237216482 6.4784501538e-06 
-0.00051812728746 0.00031394643389 0.00053334961876 -0.00053327957049 -0.0001180670673 -0.00058319253191 0.00022323022307 0.00093918094644 -0.0022849718555 
-0.00025274089081 -0.00010362292518 -0.00018544628357 -0.0007325992116 9.7220523029e-05 7.9981213492e-05 0.0020101703405 -0.00028812772509 0.0055589869805 
-0.00035386360282 -0.00058125610971 0.00044043726367 0.00032780267264 0.00011100105097 -0.00080758065594 0.0009111674205 -0.00096250449013 -0.00021307220993 
2.7021847881e-05 -1.6369116097e-05 0.00058307277497 0.000482972144 -0.00060982299178 -9.6207343951e-05 -0.0013734349834 -0.00010344966574 -0.0028256850796 
-0.00029541357249 -0.0010738454098 -0.00028610398569 0.00013070532096 3.6139710949e-05 0.00015070468749 9.5212080438e-05 -0.00028099168213 0.00024984989506 
7.3289596959e-06 -0.00035939522013 3.0698365363e-05 -0.27732762446 -0.16240298815 0.004348189243 -0.0009762523531 -0.00066081154059 -0.0018773225421 
0.00035848130523 5.9396547547e-05 0.0003887020229 0.017636870217 -0.016400450517 -0.062278427239 -0.0013235593187 -0.0031155205608 0.0037403972252 
0.0049569188788 0.0010874886096 -0.0043281749363 -0.00079661570408 -0.00032519183868 0.00025975234426 8.1005757195e-06 -0.00019763315059 -0.00029875478038 
-0.00096405703704 -0.00063496733939 -0.00018960957887 0.00079846620769 3.3260362555e-05 -0.00060048447868 -0.00073913969659 -7.3605713361e-05 -0.0016686447357 
0.0093889810761 -0.012885540708 -0.052723850928 8.0499910699e-05 0.00017823311903 -0.00045407903505 0.034808918807 -0.027490362605 -0.025646001352 
-0.00070551653001 0.00050274325384 -0.00058933062795 0.0027280213741 0.004969004537 -0.0028406137335 0.00012143723929 -0.0011390123171 -0.0025702910831 
0.088607695374 -0.0055840851579 0.08014245475 -0.00039041206 -7.0383342305e-05 0.00017824085677 -0.00045980408848 -0.00028303903367 0.00022923205697 
-0.0010290280432 -0.00017534737288 -0.00013205667738 -0.00052671701984 -0.0013024807528 -0.00072637089837 -0.00086390440429 -0.00011070822643 0.0014081213789 
-0.0020652640854 -0.0028365401762 -0.00084115430144 -7.3330782126e-06 -9.3769701563e-05 -0.00020870395815 -0.00080357494015 0.00016789119511 -2.7585243337e-06 
-0.00064132947231 -0.00034368594908 -0.00075347505543 -9.3107449957e-05 -0.0001065047907 -6.5365195265e-05 7.2772080279e-05 -0.00012218757426 0.00010995607321 
-6.4002672023e-06 -0.00066261474394 0.00026521123613 -0.00021870602728 2.2329887719e-05 -9.4794044527e-05 -7.1662441241e-05 0.00010012487823 -7.5818267761e-06 
-0.00036649983125 0.00018236485848 -0.00038912322229 -0.00013338721594 -4.9687749406e-05 -0.0002635704084 0.00058169648215 3.8635658847e-06 0.00052250676879 
-9.3973007075e-05 -5.3352261693e-06 -3.0458844889e-05 -0.0001767711969 0.0003571008674 -0.00014934215552 -5.9073229234e-05 -4.2795707309e-06 4.5472354712e-05 
5.3110102147e-05 2.0696179203e-05 7.8742308624e-05 -0.00038696353095 -0.00021282997597 0.00018482816099 -0.00087669585818 -8.3127617273e-05 -7.9383021873e-05 
-0.00017431712755 4.7528181203e-05 -4.0591896625e-05 1.3010752801e-05 -0.00032664558571 0.00023870398875 -0.00029014530267 -0.00027208359716 -0.00056151699068 
-0.00042006166158 -8.3140137638e-05 0.00018222113984 -0.00018937377301 0.0001393185151 0.0003352835582 5.9964366157e-05 4.3273746253e-05 -3.7727701544e-05 
-0.00018927310004 -4.148541132e-05 -0.00012603415785 1.6955317451e-06 0.00015085905956 0.00013811154678 0.0012919814693 -0.0012346945755 -0.0015647546682 
0.0022512680856 -0.0011285959166 -0.00080071711422 8.6186336898e-05 9.6039292656e-05 2.2624916971e-05 -0.00031553428847 4.4343000147e-05 -0.00019281161759 
-0.00013547275095 8.40162773e-12 0.00032163372989 0.016426429444 0.000508862526 -0.0033775439517 -0.013256035269 0.00094201225856 0.029804452526 
-0.00019813868773 9.0488037213e-05 0.00021710385367 0.00061395167613 0.00021743297829 -0.00016975428052 -0.00049966814435 -0.00013787160497 -1.31995696e-05 
-0.00023083968768 -0.00010293137797 -0.00072050491905 0.00011538948381 -0.00030892761748 0.00011946221272 0.00063306054759 -0.0034162530302 0.0034309594753 
0.0050718836826 -0.0074084638423 -0.010025217149 0.00028586399091 -0.00010809165234 7.8028663337e-05 0.00059706365054 -0.0004081904096 -0.0001919497364 
0.0007376397492 -8.2868520533e-05 -7.0092807057e-05 -0.00038467420672 -0.00024855554115 0.00069835644658 -0.0001809457843 -0.00086178940247 -0.00010110266649 
-0.0013862520035 0.00013606951312 -0.00058680733658 -0.0003215424528 -0.0005736957469 0.0012745185741 -0.0004370975835 -0.00049284535937 -4.388351586e-05 
-0.00029334021885 -0.0009985557773 -0.00070806566975 -0.00018466663656 -0.00037893066552 -4.2018503102e-05 -0.00070031183231 -0.0010433055699 -0.001360665368 
0.00066213943724 3.9919610595e-06 -7.5255307013e-06 0.00051509348445 -0.00019261767983 0.0005677817216 0.00048377532903 0.00031339642937 -0.00090688195736 
0.00085668222491 -0.00060781827404 0.00098583442145 0.00041986549515 0.00074335710588 0.00073569412658 -0.00071299623431 0.0025093192767 -0.0017002281902 
-1.3814272982e-05 -0.00011182594807 0.00022900548704 -0.00031695210411 -0.00078042046854 -0.00080114302776 -0.00018592421366 -0.00024444532685 0.00010578447865 
0.00072906679889 -0.00075027341559 -0.00027460707215 -8.5973723244e-05 0.00074232283001 8.6500745579e-05 0.00028567074885 -0.00025618068069 -4.3999208739e-05 
4.7173451337e-05 -0.00025983190037 -4.9000332558e-05 0.00044811989211 -0.00055119929659 0.00035067220116 0.0018637914731 0.0019470975288 5.4720839883e-05 
0.060820327873 -0.030354170199 0.072573107485 -0.00017022393605 -0.00015760276596 -8.3886414773e-05 0.00091876905544 -0.00036025810467 -0.0029943046587 
0.038625782812 -0.29683462657 0.22672824971 -0.0073724417824 -0.0021088253044 -0.0022797527286 0.00021152226567 0.000400825765 -0.00062979087878 
0.00041127094799 -0.00033737037041 0.00094855755737 0.0004205293143 -0.00087762565151 0.00094209223214 -0.00038258339429 -0.00033451564179 -0.00070466842987 
0.00056193246134 -0.0011176910415 -0.00092851619765 -0.012860712824 -0.0032192281699 0.040836007437 -0.00026699412796 -0.00014639587995 -0.00022160201175 
0.00034463474282 -0.00042921822373 -0.00035795486243 -0.00031730878223 -8.330535908e-05 0.00030054361864 0.00016898882356 -0.0014774025648 -0.00030716078643 
0.053903116535 0.013410127805 -1.7433056373e-06 -6.3251215025e-05 -0.0012949164459 -0.00080333390208 -0.00068990788742 -0.00066956892581 0.00035627522652 
-0.00015913981118 -7.6080055402e-06 -4.7229830602e-05 0.0012405723964 -0.0017494006215 0.00061395837855 -8.6947282179e-05 0.00010102426659 2.5147989335e-05 
-0.00093961429325 -0.00057239807422 -0.00068304577811 -0.00036472909799 -2.7720414411e-05 -0.00016358346737 -0.00079596701099 -0.00015281438941 -0.00054751486039 
-0.00011211370844 -0.00057585246563 8.7125680889e-05 -9.2502292351e-07 -7.4297294019e-06 8.6952098078e-05 -7.8149179556e-06 6.8069348849e-06 6.8532486505e-05 
0.00013883446422 -2.606758138e-05 -7.2365739136e-05 1.4509074554e-05 -0.00010310970783 0.00033564194266 2.96498752e-05 -9.4488800425e-05 6.0840796225e-05 
-5.039709927e-05 -2.2444859428e-05 -7.6664265263e-05 7.2827020234e-05 6.2099114288e-05 9.9797873041e-07 6.6209193949e-05 -9.5331439366e-05 -3.7150931363e-05 
-5.2732652753e-05 9.0671224217e-07 -2.6611244422e-05 -4.7382315123e-06 6.5500763996e-05 -0.0003877814483 6.5797051433e-05 -4.3820091114e-05 -6.2338127425e-06 
4.6796305266e-06 -5.6247925288e-05 0.00018462909657 -4.1228000839e-05 3.0031124876e-05 0.00014702284503 -3.5043756858e-05 -3.4830049657e-05 -1.0604385773e-05 
0.00016522984403 -0.00011535641979 0.00032109953914 3.4300826143e-07 5.654611368e-06 -1.4363008153e-05 -0.00048966063067 -6.1712731731e-05 0.00027805730476 
-0.00019822183877 0.00014379996711 0.00025334831023 -4.2449257509e-05 5.0232875219e-05 7.7205726981e-06 -0.00010389537983 -4.0308901886e-05 -9.4379142004e-05 
-0.00014498412234 -5.5975785325e-05 -0.00010720434475 -0.0004703907194 0.00027179858606 7.3618568717e-05 0.00010373937195 -8.1308827262e-05 0.00026763320222 
0.00026268606376 0.00049242513248 -0.0014829174337 -0.00017968941585 -7.3086768219e-05 -4.956760134e-05 0.0005729689626 -0.00083323827906 -0.0011828641871 
-4.6850226935e-05 1.263443121e-05 -0.0001689065305 0.00019524061733 -0.00079629795327 0.00060257587194 -0.00020926303625 2.8813576276e-05 -0.00012232500693 
0.00010622439161 -0.00020054991701 0.00028111628934 0.00022676694114 1.2707031624e-05 0.00022140680056 -0.00065101405404 -0.00021395278901 0.00020827718418 
-1.6326754818e-05 -9.9132169373e-05 -0.00011071014287 0.00023452258963 -0.00031688832361 -0.00017960643753 -0.017818723905 0.00026805393086 0.019889578827 
-0.00087378340125 0.00044506696298 -0.00033918188708 -7.1889865937e-05 0.0005519654146 0.00036758876462 -0.0070051251781 0.0018476577058 -0.0008155239602 
-0.00019374845421 -4.7218347012e-05 0.00017123755081 -0.0015482999171 -0.00013890839605 6.4375896015e-06 -0.00078692136397 -0.00043087117266 0.00034860116799 
-0.0084755745151 -0.0016442677284 0.0043588538543 -0.00048519693962 3.4701865592e-05 0.00026452286717 8.6745260672e-05 -0.00021748081013 -4.4165025746e-05 
0.00087072596671 -0.00042236042338 0.0014036157503 -0.038202380847 -0.02353980332 -0.017493593858 0.0028908909608 -0.0009725346219 -0.0043652498825 
1.9302605017e-05 -0.00065327963418 -0.00022480379711 0.00081020962921 0.0007762982459 0.00054720825702 0.00046456154434 0.00010340707903 0.00031590515904 
-0.00015512453474 0.00010082411314 7.2796135081e-05 0.00030503635801 -0.00019328739921 6.1089909719e-05 8.3703191881e-05 -9.5461225803e-05 1.150501215e-05 
-0.0001704474822 -0.0002082736135 -5.4133604257e-05 -0.00031334387913 -0.00021226233559 0.00056901379926 -0.002119232997 -0.00087695279042 -0.0072910328794 
-0.00045029959328 -0.00022215742777 7.0786919424e-05 -0.00049429974088 0.00068755716042 -0.00039336313944 -0.00015353334539 0.00034264432938 -0.0011207501488 
0.00054256917707 -0.0014545511839 -0.0014770210746 -0.00066486911019 -0.00092162512302 -0.00098052813987 -0.00040156180624 0.00035930468659 -9.2881920945e-05 
0.00022870989314 -0.00012243603694 -0.00035552021857 -6.923580551e-05 -5.9122360171e-05 -0.00037835222726 -0.00032206269612 -0.00025228370201 0.00054188775557 
-0.00015560617674 -6.1305601526e-05 5.279970803e-05 0.00088869934006 -0.0010368075549 -0.0017394681719 -0.00026151728532 4.1003996586e-05 -0.00011011481117 
5.6802990863e-05 -0.00019685719386 4.5167548957e-05 -0.00093558150758 0.001004922211 -0.0001870219299 -0.0003859692543 -0.0006950639009 -0.00095173621511 
-1.9388936096e-05 2.1769708524e-05 -0.00024091725186 8.2194817987e-05 -0.0006081650496 7.1403233608e-05 0.00044087563648 -2.270758799e-05 0.00013337254478 
-0.00038484816369 -0.00034484861667 -0.00038453439282 -0.00037624813053 0.00025763434122 -0.00016613911034 -0.00089893048948 -0.00027629770245 0.0004945462551 
-0.00014316221601 -0.001624708829 -0.00061064000913 0.0002487907812 -3.2330774986e-05 -0.00013436711939 5.2457458701e-05 -4.2790053248e-06 3.1295131365e-05 
4.858149821e-05 -0.00013767258331 -0.00010580511454 0.00011295913001 -7.2715457337e-05 -2.0933978394e-05 -2.2269896882e-05 0.00027214833632 -4.0550687714e-05 
0.00015712123728 -0.00026397005929 -9.4101031576e-05 -0.0024955141611 -0.00093321371 0.00036112355847 -7.4618820934e-06 0.00010616770675 3.0835475192e-05 
-0.035682850347 0.00058207983218 0.028093488263 -0.00015787068746 -0.00011407802325 0.00012302789101 -0.00023114485369 0.00021811784181 -5.7695371313e-05 
2.3803852355e-05 -2.8024611648e-05 3.579955814e-05 -4.172188498e-05 3.8936183077e-05 2.2534735654e-05 -0.00014296028167 -6.6682756437e-05 -0.00030235917607 
0.00011270637562 -0.00011858955782 0.0001729944907 0.00062248255284 1.4937294941e-12 -0.0040186908736 -0.00025950522049 7.6138439565e-05 0.00015217819905 
7.9948534065e-05 -5.6391710688e-05 -5.1994852714e-05 -1.1024694876e-05 0.00013704761823 -2.7000187449e-05 -0.00069039856869 3.9029081742e-05 -7.6752620979e-05 
-0.00014835929191 1.4517180327e-05 -2.1045096152e-05 0.00015967532083 -0.00023346552776 0.00025135608464 -0.00013869228769 -1.0047996319e-05 -4.4713959745e-05 
5.3849813174e-05 -0.00019628920578 0.00018292970281 -4.6045722164e-05 4.5203849082e-05 0.00022018598427 -0.00019817646337 -6.2477778795e-05 6.9023206077e-05 
-0.00081120146732 5.8981684878e-05 9.0371145097e-05 -0.00030427472512 -5.1891481751e-05 -4.8996172057e-05 -0.00023114569711 6.5170537335e-05 -5.5766066932e-05 
-0.00019008719501 -2.9190514265e-05 2.9536009719e-05 0.00037831207967 -6.7905669623e-05 0.00020553291112 -0.00011099429363 -9.7237356984e-05 -2.720024192e-05 
0.00011403531599 -0.00013163641834 -0.00013232720576 0.00015503315134 -0.00017901601707 8.2858950852e-05 8.249854388e-06 3.2371630562e-05 0.00011589778092 
9.1558283467e-05 -0.00014705233045 9.365100245e-05 -0.00040403515541 -0.00016905340839 -0.0003374943136 0.00082382680679 -0.00029449594758 -0.00035788630435 
-0.00022206333474 -4.8978171231e-05 0.00014054107413 -0.00042149914878 1.3766733273e-05 3.369120178e-05 -5.9414671123e-05 -1.4488427212e-05 -8.9100895543e-05 
0.00023504018518 0.00012884489175 -0.00040381884369 9.7448599792e-05 -8.7196486737e-05 -9.0318136801e-06 -0.0011901316106 6.3746884766e-05 -0.0011439159401 
0.00038524540197 -0.00048517461002 0.0004658807502 8.7847794711e-05 -7.3787534208e-05 0.00017706629902 0.0016607735433 -0.0012643069493 -0.00073222592994 
0.0028010381058 -4.2953215271e-05 -0.00062254652435 -0.00015912960771 -0.00045327128229 0.00025618183387 -1.7582633474e-05 -0.00018771486765 -6.6957290566e-05 
-0.00033227074265 5.8289068447e-05 -3.9110772894e-05 -0.0013520144282 0.00054380884807 4.0556323228e-05 0.0040822397681 0.00012037574356 -0.001452886385 
2.0273916683e-05 -0.00013057472445 0.00012041754217 -0.00019162855416 -0.00034683270201 0.00024387099774 -0.00051745898018 -0.00021493271694 0.0001628042718 
0.00053995073421 -0.0013757008177 -0.0015747588356 -2.3888968936e-06 5.5002133441e-05 -0.0002120688858 0.00014638783417 -0.00040466144668 -0.00058613767087 
-3.9557467205e-05 -0.00020146695089 -0.00043583257718 -0.00047214397004 -0.00082342527795 -0.0013015078557 -0.0011458497534 -0.00085495228316 6.3683712455e-05 
-0.0001520705946 -8.9266526326e-05 2.0117822858e-05 -0.00089858640237 0.00017761687663 -3.5249546285e-05 -0.00066873002114 4.5390495374e-05 4.5885197634e-05 
0.00030896119899 -0.000641690849 -9.4806902592e-05 0.00014731025826 0.00029386155318 -0.00034511825684 -3.3714820686e-05 4.3929068453e-05 0.00028882741769 
-0.00084047305369 -0.00093046618325 -0.00066239386167 2.9254894226e-05 -8.6877898929e-05 0.00049084787298 -0.00015708820861 -9.3745367898e-05 -0.0004405129253 
1.0429489043e-05 -0.0003087759379 -3.5168105703e-05 0.00062747344841 -0.0005734650272 4.056945129e-05 -0.00020486209329 -3.1670621912e-05 -7.5194217505e-06 
-0.00086864686495 -0.0003556178283 -0.00088355034659 4.372209283e-05 0.00034656888314 -8.2483760494e-05 -9.1515375188e-05 1.2979329462e-06 0.00028742953787 
0.037563768589 -0.0056715467895 0.021080916801 -0.00019725840586 -0.00090907520089 0.00067774562814 -0.0002614200498 4.6981228562e-05 -0.00015377634562 
-0.00044065564299 0.00022648207763 -0.00020067215723 7.801207116e-06 -6.233599553e-05 -5.1982085366e-05 -0.014979134631 -0.00048945123012 -0.010056301002 
1.7521234304e-05 7.1730499107e-05 -0.00022788473815 -0.00014738625286 0.00014791911468 -6.1722431633e-05 -2.154799823e-06 -4.7416642213e-06 -7.2262000911e-05 
0.00011914571735 -3.3137492884e-06 8.1200867925e-05 -0.00015404572153 0.00018001659446 -1.9083587472e-05 1.6527068771e-05 -0.00016737121617 0.00022395406179 
5.7851826777e-05 3.8677344589e-06 3.6093973281e-06 -3.8841524387e-05 0.00014929493798 5.7607119212e-06 0.0091291435388 0.0083883377356 2.5315503989e-05 
-4.216290229e-06 -1.6647329698e-05 5.779884103e-06 -0.00019633672869 6.9597102967e-06 1.3515402174e-05 -7.3397372781e-05 -1.3440502834e-05 -6.6454100299e-05 
9.3322692447e-05 2.2294383727e-06 0.00045476095204 9.8880112533e-05 2.5514185455e-06 8.3704347002e-05 -0.00024543988823 8.0220413478e-06 -0.0030952142704 
0.00036701007817 -0.00026171795538 0.00052019299202 -5.2539483711e-05 -2.9707719738e-05 -5.432408165e-05 9.6489788354e-07 5.6339186628e-08 1.0992638172e-05 
8.6296297817e-05 -2.0448850741e-05 0.00013065674615 -0.00010509015006 2.4603990892e-06 0.00016048422694 -0.00019103343399 9.9735883306e-12 -0.00013140799591 
1.9270688675e-05 0.00014375054746 0.00011686843994 5.5136734689e-05 -6.7115226558e-05 -8.8129179456e-06 1.3384397039e-05 5.4598657567e-05 0.00022815301357 
-0.0001014888264 4.8833716441e-05 -0.00017267814635 -7.5122449529e-06 -9.6768628138e-05 -0.00010542502011 1.5325997085e-05 -1.2046803735e-05 -1.654822245e-06 
9.1762985196e-05 6.103613321e-06 8.1766531191e-05 -7.8382010306e-05 -9.6477305078e-05 0.00014414201874 -0.00020793155396 2.3536635886e-06 0.00019561186437 
-0.00017352819399 0.00012761884673 0.00010742574308 -0.00024084086986 1.1047245255e-05 -0.00011517283055 -0.00070948185344 4.7573437756e-05 -6.0376354013e-05 
-0.00021723747754 2.6103321745e-05 0.00013472569601 -0.00077474628251 -0.00013269736598 -3.0749000261e-05 3.363273479e-05 -3.9180111633e-05 0.0001358999491 
0.00026221842723 -2.263803986e-05 0.00020351846885 -9.1676438914e-05 2.5976472158e-05 -1.9747772007e-05 -4.6600532615e-05 2.8643666729e-06 9.7896223492e-05 
-0.00010224103881 -0.00010158201046 1.0785441781e-05 -0.00018006056691 6.167607387e-06 0.00011521190912 -0.00031194507552 -0.00011840434581 -3.6822519581e-05 
-0.00021030953265 -7.2891796559e-06 1.0057651273e-05 -0.00011959681553 -0.00012778359404 6.3005895995e-05 -0.0023814183158 -0.0032641711026 -0.005470161178 
-0.00070293362978 2.6344005991e-05 0.00029215167398 -0.0001456634416 -3.6272463522e-05 -0.00012009673896 -0.00046437675034 -0.00011306587265 0.00014785277231 
-0.00029215623815 0.00010534824054 0.00013285145038 -0.0001938141789 0.0001950954002 -0.00034510789411 -0.00011840117504 -0.00022882583764 -1.6449589768e-05 
7.0438090377e-05 -0.0001959376221 -1.7379745324e-05 -0.0007298523269 -0.00012940457244 0.00010027238578 4.5721378391e-06 -3.554008639e-05 6.125864733e-05 
-6.134086826e-05 -6.4512908759e-05 0.00019881832075 0.00013514580169 5.7712973151e-05 -0.00016604473086 0.00018559073176 1.9343037179e-05 -0.00010040579519 
-0.00034410595138 -0.0011362733953 0.00053695939957 0.00072139312889 -0.00037557767857 1.7366371776e-05 6.01818774e-06 -8.2369469581e-05 6.2828878916e-05 
-0.00037177443541 -1.4022296164e-05 6.6510838078e-05 9.9015917994e-05 2.122012916e-05 6.7754859652e-05 0.0018607664855 0.00069300972984 -0.00044112595431 
-0.00027631928234 -0.00084469283481 -0.0009096278726 -0.00072228298589 -0.0010406021962 -0.00060869353635 -0.00069256364419 -0.00040993925918 0.00023452304522 
0.0019837620056 -8.9807369152e-05 -0.00069048678365 -0.0001408169972 -6.6845168356e-07 3.478776462e-05 0.00026879666226 -0.0002552289482 -0.00057158493024 
-0.00060619122559 -0.00070878520074 0.00088809735237 0.00043216277534 0.00023170838348 -7.1827579207e-05 -0.00012902744618 2.173396139e-05 -0.0008134008873 
8.0539883598e-05 -0.00013229023537 -0.00020997957767 0.02992156273 -0.012023500384 -1.1724233393e-06 -0.00027742608117 -0.00012794971981 -0.00025410553577 
0.00057010359573 5.0371172897e-05 -0.0009105538855 -0.00025398809686 0.00016036262867 -0.00078107568412 -0.00067227482255 -0.00021381761074 -0.00020364940893 
-0.00038838410346 0.0001865689603 7.7506903728e-05 0.023492910875 -4.5089231177e-12 -0.0034095707883 -0.00011429398274 -5.239884561e-06 0.0002632267696 
-0.00024327761543 0.0002724238806 0.00035445261407 0.0016202464177 0.00039910088422 -0.0030236452872 0.00010898855481 -0.00045002583634 3.9519467561e-05 