# vtk DataFile Version 4.1
vtk output
ASCII
DATASET UNSTRUCTURED_GRID
POINTS 1274 float
0.273699 -1.29444 -0.0532732 0.273785 -1.30221 0.095871 0.279448 -1.29493 0.317483 
0.157836 -1.31609 -0.211095 0.298466 -1.29135 0.178133 0.411575 -1.23457 -0.0670682 
0.38146 -1.29109 0.322096 0.4701 -1.23549 0.493036 0.512134 -1.24367 -0.00805114 
0.637019 -1.25333 -0.00561074 0.538897 -1.34672 0.18757 0.64126 -1.2226 0.434261 
0.852401 -1.27256 -0.151219 0.843499 -1.25445 -0.0829353 0.657746 -1.29641 0.158052 
0.755446 -1.27585 0.265871 0.696149 -1.27028 0.218749 0.793877 -1.20791 -0.0448759 
0.63707 -1.20755 -0.0559774 0.672392 -1.34643 0.00779308 0.715183 -1.19071 -0.0821646 
0.690721 -1.30816 0.278244 0.391011 -1.23455 0.281846 0.615234 -1.27211 0.224774 
0.912845 -1.23663 -0.0765147 0.301139 -1.25049 0.128388 0.657533 -1.20787 0.363646 
0.814137 -1.19496 -0.11315 0.921235 -1.31394 -0.000300784 0.822925 -1.22933 0.0380651 
0.971723 -1.20857 -0.0150536 0.656926 -1.22809 0.0466845 0.557598 -1.21898 0.3785 
1.08238 -1.22283 -0.287855 1.03359 -1.24156 -0.141534 0.503967 -1.22134 0.280685 
0.789877 -1.2788 -0.0125956 0.634917 -1.27382 0.285658 0.405219 -1.2507 0.137813 
0.951799 -1.20269 0.0594027 0.851372 -1.22677 -0.20843 0.79809 -1.23315 0.160131 
0.838175 -1.21213 0.108852 0.748318 -1.22101 0.21601 0.903393 -1.24345 -0.00531958 
0.985228 -1.23824 -0.236508 0.891764 -1.25239 0.291565 0.886721 -1.21793 0.230229 
0.452238 -1.2993 -0.30674 0.167827 -1.33256 0.280785 0.14528 -1.35888 -0.0654347 
0.0370367 -1.33475 0.173665 0.286381 -1.34238 0.471617 0.255849 -1.33816 0.384993 
0.239858 -1.31336 0.164937 0.379612 -1.3534 0.285124 0.153343 -1.34834 -0.272882 
0.359441 -1.41001 0.055646 0.611821 -1.28941 -0.213212 0.217785 -1.35345 -0.222127 
0.399542 -1.34728 -0.15134 0.371606 -1.3552 0.404639 0.399218 -1.29303 0.394596 
0.278125 -1.3483 0.208907 0.213419 -1.33833 0.00546095 0.485147 -1.26616 -0.187265 
0.413253 -1.3608 -0.0237454 0.583432 -1.34512 0.299877 0.433238 -1.28266 -0.142618 
0.304142 -1.28407 0.243106 0.552679 -1.36025 -0.0194533 0.376671 -1.2737 0.194421 
0.331414 -1.29838 0.0617598 0.330544 -1.26193 0.445496 0.508641 -1.22746 -0.0834058 
0.623488 -1.4128 0.0996287 0.54406 -1.25117 -0.240683 0.212457 -1.28188 -0.175338 
0.56842 -1.35599 0.0415297 0.541468 -1.3013 -0.0340621 0.328019 -1.26216 0.297802 
0.451372 -1.28843 0.450303 0.579792 -1.33503 0.469938 0.446536 -1.28095 0.26422 
0.511107 -1.29949 0.291014 0.451941 -1.36112 0.112129 0.615729 -1.30368 -0.0477359 
0.643821 -1.22734 -0.214019 0.97268 -1.28513 -0.284543 0.570388 -1.28634 0.172258 
0.475122 -1.28635 -0.25061 0.764595 -1.28925 0.343919 0.645531 -1.32733 0.220663 
0.577097 -1.23874 -0.0538062 0.999451 -1.26673 -0.0444165 0.741702 -1.25462 -0.0609524 
0.684798 -1.29044 0.0494422 0.876493 -1.34918 0.162035 0.603159 -1.25473 0.0797683 
0.780285 -1.23223 0.388042 0.790804 -1.24158 0.464733 0.545529 -1.2631 0.232837 
0.826042 -1.35951 0.207769 0.622022 -1.22511 -0.144786 0.687874 -1.23261 -0.0330931 
0.553125 -1.24074 0.12378 0.732422 -1.23673 0.0212602 0.808457 -1.30048 0.177991 
0.828901 -1.25044 0.340767 0.681252 -1.2671 0.329829 0.809243 -1.22666 0.532537 
0.912612 -1.24742 -0.369676 0.769602 -1.30986 0.0489726 0.437669 -1.25603 0.192619 
0.723893 -1.22675 0.535002 1.16353 -1.22117 0.0117709 0.628939 -1.26634 0.530089 
0.734241 -1.22571 0.317637 0.70491 -1.24513 0.415677 0.578906 -1.24337 0.0153925 
0.958722 -1.29272 0.21943 1.10572 -1.23872 -0.167122 0.838971 -1.3053 0.0441992 
0.976921 -1.22606 -0.0923586 0.90829 -1.28983 0.0617893 0.616306 -1.23687 0.147467 
1.32158 -1.19721 0.526091 0.738709 -1.25645 0.161015 0.940192 -1.22528 0.193826 
0.952321 -1.20832 0.423014 1.21195 -1.26351 -0.182807 0.905108 -1.23207 0.0977509 
1.04506 -1.22589 -0.00802169 0.86386 -1.23344 0.171981 1.10053 -1.25826 -0.0322382 
0.963354 -1.26296 0.0318206 0.086685 -1.41341 -0.246624 0.285891 -1.3607 -0.213084 
0.430067 -1.40919 -0.397639 0.0351688 -1.35957 0.315463 0.21324 -1.32116 0.482543 
0.0966527 -1.40799 0.156658 0.216645 -1.34412 -0.402017 0.500608 -1.31856 -0.348251 
0.0870887 -1.35983 -0.381504 0.493698 -1.34762 0.459719 0.251036 -1.279 0.529061 
0.147142 -1.35435 0.379452 0.241056 -1.41179 0.297744 0.0966585 -1.35821 -0.0125706 
0.276971 -1.32007 -0.156589 0.080093 -1.35881 -0.288978 0.472231 -1.35385 0.309867 
0.348628 -1.40768 -0.0292568 0.129616 -1.34346 0.230546 0.213236 -1.33461 0.0981128 
0.219618 -1.29566 0.291458 0.320777 -1.29138 -0.29506 0.270946 -1.34801 0.0404284 
0.422482 -1.3183 0.166113 0.0825714 -1.29265 0.215256 0.515604 -1.30056 0.419065 
0.893226 -1.3002 0.533049 0.546926 -1.35563 0.420404 0.240807 -1.2949 0.228688 
0.318167 -1.35522 0.156983 0.318847 -1.35428 0.0926236 0.367242 -1.28845 -0.232387 
0.520264 -1.33285 -0.241392 0.492623 -1.2928 0.20405 0.548568 -1.22585 0.527673 
0.64458 -1.28732 0.408234 0.776892 -1.3408 0.462063 0.423747 -1.34427 0.228932 
0.676883 -1.41468 0.136497 0.593443 -1.22163 -0.399396 0.601165 -1.35846 0.188485 
0.85418 -1.22697 -0.316331 0.39118 -1.29514 -0.298444 0.828446 -1.29971 0.28379 
0.759125 -1.28958 0.419824 0.332805 -1.28447 -0.172121 0.57133 -1.27626 0.288736 
0.670143 -1.27256 -0.166641 0.490117 -1.24963 0.145386 0.879496 -1.29189 0.214254 
0.970385 -1.38758 0.088664 0.535633 -1.28033 0.056465 0.994975 -1.25518 0.443885 
0.648757 -1.3302 0.341082 0.941765 -1.29606 -0.0631497 0.674543 -1.20783 -0.273035 
0.72569 -1.229 -0.145101 0.791322 -1.30416 -0.0806851 0.820863 -1.34982 -0.0453848 
0.739916 -1.31832 0.17807 0.702828 -1.35505 0.138463 0.859685 -1.29911 -0.0262856 
1.00885 -1.24926 0.0866814 1.0621 -1.27486 0.0386318 0.912309 -1.25101 -0.140205 
0.786912 -1.28877 0.11497 1.10923 -1.2847 0.394149 1.00432 -1.24676 0.188928 
0.818572 -1.24331 0.229 0.698511 -1.25826 0.110983 0.931601 -1.36141 0.2165 
0.857262 -1.2851 0.118947 1.19586 -1.36095 0.117193 0.947493 -1.3538 0.143653 
1.12379 -1.25898 -0.0979877 1.02648 -1.26081 0.275316 0.76313 -1.22437 0.0951738 
0.993107 -1.35394 0.196523 0.297586 -1.4153 -0.358843 0.199584 -1.37218 -0.327216 
0.0322034 -1.4135 -0.03455 0.441377 -1.28069 0.531353 0.0339863 -1.41171 0.191289 
0.088014 -1.32432 -0.106996 0.340228 -1.30685 -0.394473 0.0369042 -1.36214 0.0211624 
0.0326481 -1.34526 0.488329 0.346483 -1.40639 0.198485 0.151773 -1.41314 0.444419 
0.323965 -1.3469 0.532516 0.0881226 -1.39518 0.227296 0.3266 -1.35887 -0.265517 
0.21821 -1.35072 -0.129106 0.248389 -1.41429 -0.201776 0.124919 -1.33761 0.152986 
0.311954 -1.29151 0.502023 0.0915087 -1.33729 -0.219785 1.00553 -1.41418 0.472956 
0.234156 -1.40735 0.202619 0.218256 -1.3416 -0.0603156 0.403447 -1.35846 -0.282321 
0.150978 -1.32351 -0.00109066 0.582369 -1.41374 0.21533 0.469049 -1.4131 0.144595 
0.452437 -1.28905 0.341037 0.273948 -1.35693 0.322743 0.194372 -1.36247 0.157604 
0.311574 -1.34571 0.270403 0.802444 -1.4127 -0.226497 0.190269 -1.38807 0.264681 
0.356544 -1.34234 -0.0620771 0.161681 -1.30576 -0.120824 0.394475 -1.41526 -0.141446 
0.293211 -1.35424 -0.0873725 0.465502 -1.33982 0.396058 0.479216 -1.25487 0.394888 
0.297912 -1.35989 -0.0221581 0.358551 -1.34946 0.016256 0.800801 -1.29749 -0.212172 
0.378989 -1.36167 0.15517 0.336256 -1.3453 -0.179577 0.35266 -1.29995 0.13196 
0.37764 -1.29364 0.256155 0.347435 -1.33268 0.211626 0.526061 -1.23575 0.436678 
0.44789 -1.29512 0.108887 0.734796 -1.25915 -0.210318 1.05807 -1.367 -0.147682 
0.31033 -1.30422 0.00396439 0.443888 -1.30488 -0.019805 0.836505 -1.41477 -0.140685 
0.613583 -1.36228 -0.011423 0.650039 -1.36313 0.275154 0.501603 -1.35071 0.244413 
0.518411 -1.26061 0.345291 1.14795 -1.36798 0.38028 0.628711 -1.36883 -0.0745659 
1.12048 -1.28373 -0.219186 0.725214 -1.2967 -0.116368 0.853691 -1.32461 -0.107719 
0.686982 -1.36359 -0.0514819 0.746425 -1.34157 -0.00648058 0.897892 -1.35459 -0.0555763 
1.04998 -1.23609 0.467516 0.635928 -1.31483 0.0923151 0.841141 -1.41501 0.254135 
0.652685 -1.25793 -0.0944867 0.895582 -1.35378 0.0897777 1.09823 -1.3189 -0.000961718 
1.01076 -1.31108 0.00852036 0.813326 -1.37068 0.0466086 0.753541 -1.33953 0.101904 
0.695707 -1.29825 -0.035161 1.05054 -1.34981 0.154994 0.85485 -1.41217 0.0912944 
1.18044 -1.23142 0.410085 0.994544 -1.29001 -0.106137 1.09764 -1.40835 0.173005 
0.963316 -1.37555 -0.0367311 0.971559 -1.31632 0.0849803 0.859396 -1.20941 0.455583 
0.0341698 -1.37738 -0.227638 0.0314946 -1.41421 -0.173337 0.0354918 -1.41021 0.467891 
0.0724382 -1.41424 0.307689 0.0839274 -1.37144 0.528368 0.0998872 -1.41553 0.479595 
0.0769803 -1.41064 -0.339139 0.166914 -1.39478 -0.39495 0.38443 -1.36054 -0.403686 
0.0336249 -1.41208 -0.28588 0.051378 -1.41294 0.0665783 0.264847 -1.4091 0.47098 
0.0356004 -1.41055 0.363881 0.240138 -1.4087 0.370398 0.142746 -1.41182 0.527052 
0.301557 -1.3542 -0.332136 0.142912 -1.41429 -0.33147 0.145815 -1.41471 -0.269133 
0.640487 -1.41014 -0.320226 0.424305 -1.41293 -0.237068 0.115881 -1.41367 0.0605139 
0.0974792 -1.34393 0.422116 0.392106 -1.33181 0.529311 0.109643 -1.35189 0.31553 
0.500975 -1.4062 0.400741 0.175048 -1.37138 0.0534399 0.310246 -1.40789 -0.168349 
0.29257 -1.41419 0.0897229 0.209845 -1.40937 -0.0930738 0.355266 -1.34886 0.469553 
0.316745 -1.32229 0.415515 0.291512 -1.40986 0.249617 0.713831 -1.35034 0.518626 
0.207219 -1.35181 0.331991 0.411079 -1.35007 0.349654 0.45363 -1.34855 -0.224237 
0.383537 -1.35578 -0.218955 0.0654982 -1.35876 0.109062 0.455359 -1.40706 -0.173037 
0.243266 -1.3527 0.267288 0.263662 -1.35817 0.128557 0.420601 -1.35379 0.450565 
0.336717 -1.32092 -0.122281 0.457323 -1.41043 0.0498732 0.62756 -1.28134 -0.374275 
0.523561 -1.29204 -0.290469 0.569921 -1.41475 0.0649291 0.518905 -1.28589 0.489542 
0.648228 -1.41098 0.225378 0.550452 -1.35132 -0.296637 0.456626 -1.41397 0.209151 
0.680615 -1.36145 0.394762 1.07276 -1.2913 -0.269911 0.463031 -1.28392 -0.0797581 
0.428036 -1.34144 -0.086082 0.501927 -1.32635 0.0149095 0.438337 -1.34184 0.0377718 
0.529382 -1.33111 0.35556 0.571493 -1.28972 0.535691 0.942801 -1.25475 0.531367 
[...]
POINT_DATA 1274
FIELD FieldData 10
VELOCITY 3 1274 double
-4.2947880419e-05 -2.8998539325e-05 -3.1812694724e-05 -0.00042484844125 2.6701458814e-05 1.4344903728e-05 -0.00016404130179 -4.9731322768e-05 0.00012613928752 
-3.1662905347e-05 -2.9321554158e-05 9.0772923784e-05 -0.0001095827813 -3.9359849912e-05 6.7339161874e-08 -0.00013066883773 0.00012136116861 9.9847907011e-05 
-0.00024620543927 -4.3941079679e-05 2.2020683909e-06 -0.00028211143682 -8.7750412141e-06 -0.00015306735183 -2.2080716658e-05 1.2006051075e-05 -6.4144539121e-05 
6.4303796906e-05 -8.9616796111e-05 -0.00012327599971 -0.00013875423551 3.7267964214e-05 -1.4086952929e-05 -0.00020569204465 -0.00028062187511 -7.2338628376e-05 
-1.6403076912e-05 -0.00011752413539 2.0598438426e-05 -0.00012967680759 2.123773337e-05 -2.8539294455e-05 -7.1134080703e-05 -5.8832326221e-05 6.710263711e-05 
-9.7169044543e-06 3.9631632003e-05 -5.5640755475e-05 -2.130103511e-05 0.00012582138858 -6.1046916215e-05 -0.00024317573251 -0.0001144326684 -7.3329914902e-06 
-6.5315431044e-05 -0.00015698353235 -0.0002520866588 -0.00010427267667 7.3975149764e-05 9.7972475733e-05 0.00025825082625 -0.00011474745844 -0.00012541498888 
6.8738838148e-05 -4.7365017482e-05 -0.00017284122535 -4.8989554168e-06 -3.2867377361e-05 7.6236263671e-05 -0.00011408986775 -3.7342448742e-05 0.00014512173043 
-0.00013389099338 -0.00014048464768 0.00023771327869 -0.00018580670164 -4.7905987416e-05 -1.2244046383e-05 -5.1143559552e-05 -0.00013073398198 2.2819724403e-05 
-0.00034346217156 -0.00010548865131 -4.8087457903e-05 -9.9772573294e-05 -4.5515682614e-05 8.1966983214e-05 -0.00036440470746 -7.1323136336e-05 -7.6108287268e-05 
-0.00017828750759 -5.6464928333e-05 0.00020431317672 3.5367652252e-05 6.4230419115e-05 -0.000175557205 -0.00024017607118 -0.0001686460541 -1.097964377e-05 
0.00013434762904 -0.00018936835163 -9.5515437138e-06 0.00019637524338 -4.9057360472e-05 5.1421919818e-05 6.6531954814e-05 -0.00017614738485 1.1443969004e-05 
-0.00016278160503 -0.00017646065074 -0.00020086474618 -9.1992846841e-05 -0.00020839211605 -1.3546594882e-05 -3.4999927275e-05 -0.00012076857965 -3.8362339742e-05 
0.00039662969749 -0.00026209499465 0.00025545442353 -1.4701556471e-05 -0.00023523933736 -4.7979511281e-05 -8.314960171e-07 1.4026762439e-05 3.1498213756e-06 
-0.00014407314969 -1.02840658e-05 -0.00012072511641 0.00013037616723 -4.6515734986e-05 -0.00014952065895 -0.00019218176682 -8.7662266702e-06 0.00029050765791 
0.0003952034774 -0.00017921414124 0.00017319655024 -4.059690349e-05 -0.00015553888494 2.8253570884e-05 -0.00037336928855 -5.5665723713e-05 0.00014194429116 
-0.00018089122427 -3.70028132e-05 -2.3606634644e-05 -6.3158257406e-05 -7.892868277e-05 3.3102114403e-06 1.0282950767e-05 -7.7718279883e-05 -3.6006387484e-05 
1.7596220754e-05 -0.00034449996377 0.00010144165232 -0.00015588466915 -7.1302251001e-05 -0.00010492437371 -0.00016004094694 0.00014462644475 2.8702507591e-05 
-0.00010584509962 -8.986387741e-05 0.00022550619418 -0.00014268859861 -3.592323438e-05 -5.9985739749e-05 4.9530343057e-05 -4.7788600837e-05 7.6144317766e-05 
2.7754571865e-05 2.275854818e-06 1.9940855148e-05 -0.00012003046725 6.2020960997e-05 5.5361248057e-05 -2.527564703e-05 -1.6136997355e-05 0.00011033269264 
-0.00010764502584 2.1324219236e-05 0.00011259744839 -0.00019636699489 -0.00010587849441 -3.1715492308e-05 -0.00031418644028 -5.1352284854e-05 -7.5031792641e-06 
-2.7549926013e-05 -3.3390158473e-05 0.00010187054506 -0.00013447081008 -0.0002063681515 0.00017384272964 -0.00011483490844 -0.00011734100754 -2.8779455585e-05 
-0.00020647518522 3.6348483114e-05 2.6569607158e-06 -8.3679917175e-05 4.4148022377e-05 8.4272709267e-05 -0.00013475524134 3.2773793526e-05 1.7171257688e-05 
-0.0001254195888 -2.4392592758e-05 2.9144600341e-05 -0.00015866899463 5.4055321457e-05 0.00014829525313 -0.00017499223351 -2.1810176811e-05 -3.7415695799e-05 
5.8832845503e-06 -2.5950293701e-05 1.5053755094e-05 -0.0001728544343 6.7211187563e-05 -2.6337599256e-05 3.4753454584e-05 -0.00012157311378 -0.00015351355229 
-9.53819492e-05 -5.6177719829e-06 0.00010589910772 -0.00020485527616 -0.00010677693272 0.00010861168933 2.2208672013e-05 -3.6126843014e-05 1.0042951324e-05 
4.7462511868e-05 5.0848257283e-05 0.00015673689015 0.00020100445771 6.0581139531e-05 6.3548836204e-05 -0.0002454411758 -8.4260941476e-06 5.629072128e-05 
-0.00027850212992 -0.00011191007006 -8.2659009623e-05 -0.00022923274029 -0.00014257532496 0.00011881416364 -2.0100933378e-05 -7.0719814185e-05 4.8574000536e-05 
-4.0879173223e-05 -0.00020261574783 -9.4513679692e-05 -9.6456469883e-05 -5.3741291754e-05 -7.3313624007e-05 0.00026155287565 -0.00017600293959 -6.1647906587e-05 
0.00012842535184 -0.00013764780521 -4.134501782e-05 0.00010945812502 -0.0001398390556 0.00017085416629 0.00014079753185 -0.00019302833305 -4.7727604046e-05 
-0.00021117177683 8.2711501201e-05 -3.600442635e-05 -0.00010334835534 -1.2633715826e-05 -1.2492250384e-05 -9.8501584369e-05 -9.7495638128e-06 -4.23896019e-05 
2.0951888396e-05 -0.00029989298779 -0.00019045072366 1.4139106312e-05 4.3291249878e-05 0.00015195692373 -5.9763216532e-05 -0.00025112932811 -0.00025429404916 
-1.6521554976e-05 8.0680530827e-05 -3.6376632612e-05 0.0001703585051 -6.4736982767e-05 0.00016099310448 5.8544506149e-05 -1.2401147016e-05 -0.00016518689148 
-0.00010911133007 1.4696397029e-05 6.6477968838e-08 -0.00030410466757 3.0873264915e-06 7.2406909835e-05 1.0801195066e-05 -5.2823906279e-05 -0.00017263289503 
-0.00022631480573 0.00010522633555 9.8334785712e-05 -4.9214778635e-05 -0.00025647568415 -6.9484266059e-05 -3.7079279891e-05 -5.2408452982e-05 -0.00023090383202 
3.5178834054e-05 -0.00033235897899 -0.00014831264571 -3.8452549579e-05 -6.3185206054e-06 -0.00020675176625 3.6081861898e-05 -3.5758123133e-05 -0.00017012430968 
-7.6597089138e-05 -0.00024210099533 9.2648731172e-05 -3.7494745349e-05 -1.3744788162e-05 -0.00019237213026 -0.00013760855786 -3.4103839435e-05 1.5033990748e-05 
0.00010986635148 -6.4556986656e-05 9.0062283694e-05 -0.00011169528655 -0.00034572789082 7.0789788365e-05 -0.00017905655768 -3.4959280108e-05 8.9968281719e-05 
1.5404057843e-05 -9.0816980617e-06 1.3635398046e-05 8.682540114e-05 -0.00015839195628 -0.00014685997227 -6.477956912e-05 -0.00010202060341 -5.3285930837e-06 
-1.378863534e-06 2.7566973028e-05 -3.7024285515e-05 -4.5754747137e-05 0.00010389712681 5.6712210329e-06 5.9651137655e-06 -0.00023871350226 -0.00021028079494 
5.7139785971e-05 -0.00034903476505 -0.00019020300117 0.00012807068122 1.3764887252e-05 -0.00016550784454 -0.00023395764736 -3.3884185168e-05 -5.1236577505e-05 
-0.0001704700981 -0.00015109974879 8.5508779078e-05 -0.00011218072166 -2.2036054419e-05 6.4488342047e-05 -0.00010130841625 1.5914144676e-05 -0.0001367813505 
4.8345629199e-06 -8.2057044853e-05 -4.5485139469e-06 6.1781946703e-05 -7.9476943428e-05 -0.00015800556045 -0.00025569672989 -0.00019906438896 0.00034870190065 
-0.00040300942441 -0.00014360407386 3.7180009003e-05 9.922594354e-05 -0.0002398420349 -0.00022068793033 -6.814982064e-05 4.9689885496e-05 -6.3423337059e-05 
-0.00013445105345 -9.2700624813e-05 -3.2117944235e-05 2.7858164426e-05 -4.7226948309e-05 -4.3147898808e-05 -0.00035528233628 -0.00016247305285 -0.00035475822755 
-5.6796658479e-05 -0.00021763634284 6.5963778086e-06 -1.6739850573e-05 4.0001679973e-05 1.5088580492e-06 7.3403600814e-05 0.00017737614483 -0.00018024569714 
6.4325713236e-05 2.1785802471e-06 9.6597843428e-06 -2.3714686804e-06 3.2550450811e-05 0.00017982075918 -3.9114728632e-05 -5.9091934324e-05 -3.6839651821e-05 
-2.4941844179e-05 3.5507489268e-05 -0.00012614634577 3.3059368554e-05 7.0773110795e-06 -5.8987031103e-06 -0.00021752859914 5.3253644142e-05 -3.7316820261e-05 
-1.6681663768e-05 1.0334602614e-05 -1.6352502005e-05 2.4347750514e-05 2.9732300949e-05 -5.6126035186e-05 -4.5020701224e-05 -4.1014429543e-05 -5.7782333084e-06 
0.00011815299245 4.3324560283e-06 6.4818031017e-05 -5.1941665746e-05 -9.9647090492e-06 7.2577922277e-06 -6.7863822218e-05 -3.5610902964e-05 -9.7646927424e-05 
-7.2439890571e-05 -0.00016266925417 -1.1133553384e-05 -3.6096824306e-05 1.2152971722e-05 -4.3672827816e-05 -0.00023062340129 -1.5175216233e-05 -5.9321722073e-05 
-7.750931636e-05 0.00015799652308 0.00010200157539 -0.00010326243553 3.8892125885e-05 -1.0922738687e-05 -0.00010042695449 -8.346094828e-05 -6.2419330181e-05 
-0.00013176498868 -5.141165968e-06 4.6159043987e-05 -0.0001456727603 -2.6726232745e-05 3.2426339264e-05 6.4180471792e-05 -3.1103190727e-05 3.3645287982e-06 
-4.5562925277e-05 -2.9060725459e-05 -7.7789239411e-05 -0.00015177604703 -3.369512769e-05 -5.6459473649e-06 0.0001051580335 -0.00027143786147 -0.00034642452683 
-0.00010732004133 -1.0613964853e-05 0.00014216688397 0.00019816933095 -0.00012379789121 -5.7338055124e-05 -0.00014471380711 3.6190306468e-07 8.9072723809e-06 
-0.0001101019124 5.8213783412e-05 -3.164645612e-06 -8.4951346783e-05 4.7377340255e-05 0.00010308133082 -0.00013444411776 -6.3681962953e-05 3.4013510972e-05 
5.1455959509e-06 -9.5782568875e-05 2.1107942672e-05 -0.0001063128877 1.2009881809e-05 5.6468140075e-05 -1.6267361793e-05 -6.6249417605e-05 -9.3406500169e-06 
-8.4540177264e-05 8.7539999577e-05 -1.4439955979e-05 -0.00018076102947 0.00015084765428 0.00024151138455 -0.00026887554449 8.5840328109e-05 -7.6761665921e-05 
-0.00011781608564 -1.6416935739e-06 1.7627537691e-05 -0.011728459434 0.00046506953935 -2.3477842686e-06 -0.00011453257911 4.1256376086e-05 -6.4551086548e-06 
0.00027209090937 -0.00017584683427 0.00015053738346 -0.00018168312385 -4.0010083182e-05 -3.5413915067e-05 -8.8721931126e-05 -7.9117378887e-05 4.3617483152e-05 
-8.1583273185e-05 3.0311700038e-05 -9.6316111787e-05 -0.00013216645681 -1.6375268319e-05 -6.7597952832e-07 -0.00011271943977 -3.5807423643e-05 -1.964435175e-05 
-1.1747430448e-05 -0.00024465051723 -8.4317633071e-06 1.9347212317e-05 -0.0001209900345 -9.1410558927e-06 3.4351115032e-05 3.6814672191e-05 5.4272032403e-05 
-2.8345363741e-05 0.00016897407182 2.7380208116e-05 3.5475207646e-05 -5.3227790071e-05 9.0349709066e-06 0.00026181132508 -0.0002401082765 -0.00013707385882 
-2.5365402325e-06 -2.8268866942e-05 2.6191697345e-05 6.4142577831e-05 -4.8929142901e-05 0.00014072741838 -0.0058584017736 -0.0036720776268 -0.021123971627 
-5.783294833e-05 -9.010961267e-05 -0.00018889444789 -8.3548799392e-05 -5.6127837703e-05 -7.984451773e-05 8.9027361476e-05 -4.0034024542e-05 -0.00020814237499 
6.211320835e-06 -7.3095824551e-05 -5.5200452401e-05 -0.00025657040809 -0.00010423191241 7.6515133686e-05 -2.0510693983e-05 -1.9196016694e-05 0.00011872852744 
0.00010560576477 1.4536494485e-05 -0.00019644775953 4.041559542e-05 -9.7383605092e-05 -6.6736700127e-05 -9.472042183e-05 -7.1687560798e-05 0.00024526358569 
-8.6961603831e-05 -0.00014683816634 -0.00011010900026 -0.00023404066858 -0.00056729144067 -0.00053359263305 -7.7851610569e-05 -1.6975788585e-05 0.00013590346084 
5.9426665817e-05 -0.00011227317786 -2.2396803621e-05 -0.00011192175979 -3.321318313e-06 2.2122936751e-05 -0.00025401471257 -0.00025299676535 -0.00036407252063 
-7.6151588087e-07 5.9453202792e-05 -0.00022018348501 5.5692406085e-05 -3.9547998055e-05 0.0001735158837 0.00011259715818 9.7012331917e-05 0.00010918063563 
8.9107261222e-05 -0.00018016686033 -0.0002150529497 6.9294272181e-07 -0.00015266841058 8.4526097689e-05 -7.3367679797e-05 -0.00016087384422 -0.00016752628781 
-0.00018873069362 -0.00058556546676 -0.00024709896909 -0.0001978855283 0.00012117384626 1.1161248719e-05 -2.573801689e-06 2.3125580744e-05 -6.969741292e-06 
1.0033104203e-05 -2.138288458e-05 -6.6759695219e-05 -7.0070169399e-05 -1.3217835844e-05 -2.1761278146e-05 7.0140591418e-05 -0.00025620552769 0.00015287335744 
4.2616664826e-06 -0.0001354053605 -7.0859335242e-05 -1.5015200092e-05 -6.3644133862e-05 -9.375074467e-06 1.9142738531e-05 1.824401819e-05 6.9548347699e-05 
-6.9217300228e-06 5.2544260814e-05 -0.00017424558561 -0.00011194921155 3.0852692419e-06 -1.0726691564e-06 -0.0002797958543 0.00015061869915 -0.00021975315174 
-9.8150539536e-05 -2.3602060519e-05 2.7157069509e-05 -3.1475079235e-05 5.668644212e-05 3.2579847041e-05 -3.063516888e-05 -1.1373098838e-05 -3.9957771674e-05 
-2.3011176537e-05 -0.00012571993558 0.00013163373556 -0.00061799765894 7.3975390033e-12 0.00080473983806 -0.00017758794771 5.037255e-05 4.4271195604e-05 
-5.8303541628e-05 -4.9077384923e-05 -5.5821767e-05 -8.970656954e-05 0.00019556142852 -5.2699353396e-05 -8.3696411145e-05 1.2176491262e-05 4.8509122892e-05 
-0.00014976386199 1.4441409996e-05 -7.3384660778e-05 0.0001149196939 -0.00018666121767 0.00013225273266 6.9889362758e-05 4.4486084501e-05 6.0768064315e-05 
-4.9476761376e-05 -9.7255366618e-05 -2.1444337969e-05 -1.3134613621e-05 1.6508896682e-05 0.00012818546208 -1.8750055012e-05 -9.7181404209e-06 3.7944056018e-05 
-0.00029035799584 -3.3832937189e-05 4.7287034425e-05 -0.00016225585789 -2.8456983925e-05 1.6740747061e-05 -0.00018782086489 9.3275694444e-06 -3.4809878525e-05 
-0.0001544477263 -4.7663112958e-05 3.6814444488e-06 5.1712656519e-05 -4.1022654427e-05 -0.00017929056417 4.0734597099e-05 -0.00019060590746 8.7470357554e-06 
0.00010883124927 -5.2630626141e-05 -4.363860666e-05 1.1235033027e-05 8.4316769728e-06 6.5275316681e-05 0.00013029364793 4.1294635308e-05 0.00029449299005 
9.4696240443e-06 -5.4504063045e-05 5.0506891564e-05 -0.000189900759 -7.2449022744e-05 -6.5651171473e-05 -0.00012942171575 -8.7077170169e-05 2.84295988e-05 
-8.8068064909e-05 -1.8634753394e-05 1.8485320574e-05 -0.00015800491567 -4.249036615e-05 -2.7268804565e-05 0.00015402215066 -0.00021399355829 -0.0001064381673 
-9.0175063992e-05 -7.4544636216e-06 4.2876529225e-05 2.9278658678e-05 -0.00010797172612 0.00020662622644 -0.0001135356139 -2.4556849271e-05 -3.1088850773e-05 
-8.3242794869e-05 1.5090874056e-05 1.242665491e-05 -8.7819245179e-05 -2.3864454822e-05 4.2109308298e-05 -0.00010641694733 -0.00015781205246 4.8307845324e-05 
4.2626024284e-06 -6.8681206966e-05 -3.3302625848e-05 9.147671839e-05 -0.00025892270658 -9.8725269473e-05 -9.529225306e-06 -3.7587138173e-05 5.6138088956e-05 
-0.00016728482343 -5.1227845432e-06 7.6497496663e-05 -0.00025532947584 3.8239857716e-05 -4.6686266423e-06 1.8894348803e-05 -8.4960105129e-06 5.0239322971e-05 
-3.7551253631e-05 -2.236686223e-05 -0.0002278196627 -5.2915484118e-05 -8.823793954e-05 0.0001431381725 -0.00017764698793 -5.5798987678e-05 -6.7507170718e-07 
-0.00012688419231 -0.00025161332042 -1.2069481649e-05 -0.00014366724709 8.8936160792e-05 -0.00017555956294 4.0325151509e-05 -0.00019653342896 -0.000171031385 
7.7337475641e-05 -0.0001316166956 -5.3579445151e-05 6.6650062689e-05 -0.00018127343414 -0.00034416448923 -0.00013244164249 -3.5535661089e-05 0.00015289556744 
7.1878279699e-05 6.3139856658e-05 -5.2777075663e-06 -0.0003425578621 -1.6377305265e-05 7.208748616e-05 -2.2642865602e-05 3.7590445689e-06 3.404897225e-05 
0.00012161557985 -3.3282738312e-05 6.7785240594e-05 7.7193980198e-05 -1.123205209e-06 -2.8689288498e-05 -0.00029938436344 1.4462328873e-05 -4.647823964e-05 
0.0001977843743 -0.00016516543281 -0.00016044646374 -0.00010032977469 -2.1545352081e-05 3.0176386732e-05 -6.6986079699e-05 -0.00024353252359 -0.00022858244421 
1.2893035105e-05 -0.00012047824801 -3.8740913019e-05 0.00015811662608 -0.0001292932364 5.1245741243e-05 -0.00017790036014 -5.70426685e-05 0.00021711813261 
-0.00017823034754 -0.00011439598768 -0.00020525069954 6.5535439452e-05 0.00010538158049 -0.00010249433908 -1.566360868e-05 1.3698089326e-05 0.00019279088739 
0.00022116957442 -0.00018072388025 -4.5173906408e-05 9.2500250239e-05 -0.00015073484949 0.00020667588452 -0.00037931849644 -4.1136853608e-05 -0.0002372292052 
-0.00011400821514 -3.2522258332e-05 9.8032246224e-05 -8.9765913489e-05 0.00013558353857 -1.0452276716e-05 -0.00028492044567 -0.00018426484935 -0.0003396882798 
3.0944795549e-05 -6.4541118641e-05 -0.0002164860954 -0.00013641850206 0.00018329164246 -6.6405525783e-05 -1.0768222301e-05 -8.9085530349e-07 1.7499965095e-06 
-5.3744686453e-05 3.5150285904e-12 0.00021754223253 -0.00018900035627 9.7327606182e-05 -3.898333852e-05 0.00013847315452 2.8025209209e-05 0.00038930899295 
7.7260306433e-05 1.538390508e-05 -0.00013473116988 -3.6533371786e-05 0.00012934300815 2.2062045426e-05 4.3211905142e-05 2.2978634092e-05 -7.1050957404e-06 
3.3172851432e-05 2.2089822279e-05 -2.5818132e-05 -4.4607478854e-05 -1.5902301234e-05 -4.8762331342e-06 -0.0002681409672 1.19844902e-05 -6.3495221439e-05 
3.1564822776e-05 -5.1696902199e-06 0.00013871282026 0.00010995628475 -7.4712155398e-06 5.9238230749e-05 -0.00019385303856 2.4429693445e-07 0.00024775297637 
-0.00013925654334 -4.832327077e-05 6.2465335221e-05 3.641283591e-05 6.1300245285e-06 4.2042006798e-05 -8.4017093585e-05 -4.1166409922e-05 3.3151380504e-05 
-0.00013821115853 -8.9696271824e-06 -2.7430279708e-05 4.2044347876e-05 -6.7273521713e-06 -2.347900384e-05 -0.00011898598654 2.4014470255e-12 -0.00011503410503 
2.0743780973e-05 2.7127681716e-05 -3.6586891467e-05 -8.835247588e-05 -7.4652457871e-06 -1.6087582844e-05 1.2035861311e-05 -2.1948266824e-05 0.00013847667127 
5.0904770601e-05 -7.9274370902e-07 -0.0002381098024 -1.8311960224e-05 -4.4769358698e-05 -0.00013219338896 7.3497592762e-06 2.0119691822e-05 8.12151807e-06 
8.7836227805e-05 -8.3284623799e-06 -3.9469687569e-05 -5.5530386015e-05 -0.00020437559156 1.8185743121e-05 -0.00014675551444 -1.6575155551e-05 9.1838745691e-05 
-6.9447249564e-05 5.078074523e-06 1.4552759463e-05 -6.8826303775e-05 -1.5461531492e-05 0.00012230265977 4.212298234e-05 5.2250020074e-05 0.00011528847728 
-8.7245001672e-05 1.6659902966e-05 7.4477326989e-05 -0.00024593484882 -2.8885189466e-05 -2.5908189993e-05 1.9555893314e-05 -4.6343376511e-06 2.6367886117e-05 
-0.00014370378213 4.2131190775e-05 -0.00014109014915 -8.1280444662e-05 3.2557160747e-05 -6.2617921762e-05 -3.5230591047e-05 -2.835562054e-05 -6.7270459897e-05 
-0.00017053194448 1.4419837741e-05 -1.2575203246e-05 -0.00011820005001 2.8215503082e-05 8.5408407374e-05 -0.00016734325845 -7.2501519769e-05 0.00010589627869 
-5.3421114358e-05 1.0552845233e-05 7.7044614238e-06 -0.00015886437629 -0.00015311721315 0.00017788225009 -0.013266073553 -0.0071184745782 -0.015936351021 
-0.00017475691168 -1.0509096179e-05 2.1498548033e-05 6.3340137392e-05 -2.5305539422e-05 -4.8705819537e-05 -0.00033681887686 -2.0156029372e-07 0.00016851405111 
-0.00027945848129 4.5536893272e-05 8.9330531996e-05 -7.0025034937e-05 0.00011754153756 -0.00013575823744 -8.7117753744e-05 -1.7945603603e-05 -3.2010890567e-05 
-0.00013762446167 3.5530281606e-05 7.5905187206e-05 -6.2760951198e-05 -0.00014277749191 4.0942504683e-05 -0.00029034085536 0.00010890627325 6.7620273954e-06 
-0.0002338641781 6.140272165e-05 0.000154012797 -4.5635233155e-05 1.6176856428e-05 -5.6304176172e-05 5.6362601485e-06 9.131619567e-06 -3.3130043382e-05 
-0.00019869408972 -0.00026707649798 -1.7103518413e-05 -0.00011302927611 -6.9880451618e-05 5.3769221844e-05 -1.479737891e-05 -0.00016849357236 -1.4028642963e-05 
-8.4834377029e-06 -1.554904656e-05 2.1207039269e-05 -0.00021596855841 -9.2897495514e-05 3.1486743515e-05 -4.9978649904e-05 4.5428086301e-05 -4.8137773e-05 
-6.1589823345e-06 -0.00016303831194 -0.00035558368004 -0.00021983869823 -0.00019629682435 -0.00024691695801 -0.00011823612932 -8.2181937482e-05 1.5668306279e-05 
-2.1733798954e-05 5.4350162068e-05 -4.469790537e-05 -0.00011126941305 1.8831014306e-12 4.9845776731e-05 3.8898282206e-05 -6.6943302633e-05 -0.00019480868435 
-5.1724916633e-05 0.00018872732638 -1.4532447503e-05 -0.00039465256133 -0.00014677114138 7.5600144808e-05 -3.5787293057e-05 1.5240471977e-05 -0.00014570804885 
-6.6976027415e-05 -7.8714604293e-05 0.00017790993877 -3.4260386538e-05 -7.5749372082e-05 -7.2879745141e-06 -0.00012607451809 -5.4187919307e-05 3.2006767169e-05 
0.00023522531719 4.9412016287e-05 -9.7019572881e-05 6.4723056836e-05 7.9594802667e-05 -7.9953538991e-05 -7.9541096401e-05 -1.3630032095e-05 -6.8312770991e-05 