# vtk DataFile Version 4.1
vtk output
ASCII
DATASET UNSTRUCTURED_GRID
POINTS 1274 float
0.273688 -1.29446 -0.0533406 0.27362 -1.30218 0.0959066 0.279325 -1.29496 0.317593 
0.157815 -1.31607 -0.211031 0.298407 -1.29137 0.178174 0.411476 -1.23449 -0.06695 
0.381294 -1.29111 0.322114 0.469903 -1.23548 0.492933 0.512113 -1.24363 -0.00816575 
0.637044 -1.2534 -0.00570644 0.538806 -1.3467 0.187562 0.641115 -1.22279 0.434205 
0.85239 -1.27264 -0.151194 0.843405 -1.25444 -0.0829436 0.65766 -1.29639 0.158089 
0.755452 -1.27582 0.265841 0.696168 -1.27023 0.218705 0.793667 -1.208 -0.044919 
0.637043 -1.20768 -0.0561539 0.672364 -1.34643 0.00780645 0.7154 -1.19079 -0.082204 
0.690741 -1.30819 0.278155 0.391026 -1.23457 0.281912 0.615149 -1.27214 0.224817 
0.912753 -1.2367 -0.0763471 0.301016 -1.2505 0.128434 0.657499 -1.20796 0.363636 
0.813922 -1.19503 -0.113192 0.921183 -1.31396 -0.000252055 0.822657 -1.22938 0.0380286 
0.971607 -1.2086 -0.0149044 0.656927 -1.22805 0.0465488 0.557446 -1.21909 0.378502 
1.08241 -1.22297 -0.287906 1.03372 -1.24153 -0.141544 0.504023 -1.22146 0.280698 
0.789786 -1.27892 -0.012683 0.634873 -1.27396 0.285647 0.405176 -1.25079 0.137763 
0.9521 -1.20286 0.0596035 0.851312 -1.22704 -0.208433 0.798078 -1.23312 0.160134 
0.838069 -1.21214 0.10877 0.748404 -1.22104 0.21591 0.90327 -1.24345 -0.00509917 
0.98539 -1.23837 -0.23642 0.891718 -1.25247 0.291631 0.886419 -1.21796 0.230346 
0.451868 -1.29941 -0.306767 0.167787 -1.33262 0.28077 0.145317 -1.35894 -0.0654415 
0.0370367 -1.33498 0.173741 0.286257 -1.34237 0.471566 0.25579 -1.33813 0.385016 
0.239798 -1.31342 0.165049 0.379553 -1.35342 0.285078 0.153424 -1.34835 -0.272814 
0.359484 -1.41001 0.0556766 0.611709 -1.2894 -0.213175 0.217755 -1.35347 -0.222004 
0.399464 -1.34728 -0.151236 0.371511 -1.35527 0.404703 0.399003 -1.29306 0.394596 
0.278055 -1.34832 0.208951 0.213329 -1.33852 0.0055649 0.485031 -1.26629 -0.187317 
0.413103 -1.3608 -0.023717 0.58338 -1.34513 0.299898 0.433118 -1.28262 -0.142612 
0.304055 -1.28409 0.24315 0.55264 -1.36022 -0.0193085 0.376569 -1.27372 0.194392 
0.331403 -1.29842 0.0617344 0.330415 -1.26187 0.445484 0.508652 -1.22754 -0.0834819 
0.623457 -1.4128 0.0996614 0.543756 -1.25127 -0.240616 0.21248 -1.28191 -0.175293 
0.56845 -1.35595 0.0416559 0.541647 -1.30124 -0.0339919 0.32785 -1.26214 0.297867 
0.451186 -1.2885 0.450279 0.579739 -1.33508 0.469957 0.446517 -1.28099 0.26425 
0.511103 -1.29964 0.290935 0.451868 -1.36116 0.112105 0.615902 -1.30379 -0.0478498 
0.643919 -1.22745 -0.214005 0.972736 -1.28523 -0.284456 0.570441 -1.28647 0.172211 
0.474771 -1.28627 -0.250691 0.764547 -1.28925 0.343902 0.645454 -1.32735 0.220657 
0.577113 -1.23896 -0.0539467 0.999433 -1.2667 -0.0442977 0.741675 -1.25486 -0.0611625 
0.684789 -1.29041 0.0494056 0.876614 -1.34921 0.162141 0.603191 -1.25474 0.0796448 
0.780222 -1.23222 0.388025 0.790592 -1.24154 0.464761 0.545549 -1.26312 0.232734 
0.82597 -1.35954 0.207661 0.621967 -1.22531 -0.144842 0.687866 -1.23269 -0.0332559 
0.553116 -1.24095 0.123674 0.73239 -1.23673 0.0211233 0.80843 -1.30048 0.177916 
0.828866 -1.25059 0.340838 0.68126 -1.26713 0.329741 0.809164 -1.22666 0.532537 
0.912663 -1.24748 -0.369585 0.769526 -1.31008 0.0490165 0.437576 -1.25607 0.192603 
0.723892 -1.22675 0.535002 1.16358 -1.22125 0.0116486 0.628898 -1.26641 0.530069 
0.734232 -1.22569 0.317613 0.704873 -1.24505 0.41568 0.578894 -1.24357 0.015254 
0.958766 -1.29298 0.219275 1.10579 -1.23869 -0.167239 0.838875 -1.30532 0.0441651 
0.976808 -1.22613 -0.0922792 0.908175 -1.28983 0.0618194 0.616211 -1.23688 0.147369 
1.32158 -1.19724 0.526037 0.738719 -1.25649 0.160936 0.939964 -1.22545 0.194079 
0.952057 -1.20845 0.423043 1.21203 -1.26366 -0.182951 0.905029 -1.23201 0.0976703 
1.04494 -1.22601 -0.00806799 0.863897 -1.23348 0.17197 1.10034 -1.25838 -0.0324555 
0.963306 -1.26312 0.031838 0.0866587 -1.41341 -0.246674 0.285891 -1.36066 -0.213147 
0.430076 -1.40919 -0.397639 0.0351688 -1.35954 0.315594 0.213217 -1.3212 0.482541 
0.0966142 -1.40799 0.156602 0.216662 -1.34411 -0.402017 0.500314 -1.31852 -0.348267 
0.0870818 -1.35982 -0.381529 0.493635 -1.34761 0.459653 0.251 -1.27902 0.529061 
0.147217 -1.35436 0.379502 0.241012 -1.41179 0.297783 0.0966148 -1.35824 -0.0126513 
0.276943 -1.32017 -0.156499 0.0800797 -1.3588 -0.289012 0.472039 -1.35384 0.309848 
0.348583 -1.40768 -0.0292263 0.129585 -1.34343 0.230505 0.213171 -1.33467 0.0980729 
0.219529 -1.29567 0.29149 0.320425 -1.29145 -0.294913 0.270922 -1.34801 0.0404749 
0.4224 -1.31827 0.166068 0.0824614 -1.29268 0.215247 0.515735 -1.30068 0.418952 
0.89313 -1.30022 0.533049 0.547037 -1.35576 0.420347 0.240722 -1.29492 0.228721 
0.318106 -1.35522 0.157034 0.318818 -1.35427 0.0926753 0.36699 -1.28851 -0.232314 
0.52029 -1.333 -0.241336 0.492543 -1.2928 0.204116 0.548567 -1.22589 0.527673 
0.644509 -1.28726 0.408203 0.77676 -1.34073 0.462268 0.423624 -1.34424 0.228886 
0.676803 -1.41468 0.136507 0.589172 -1.22276 -0.399396 0.601073 -1.35843 0.188463 
0.854232 -1.22711 -0.316177 0.390825 -1.29517 -0.29841 0.828407 -1.29979 0.283797 
0.759035 -1.28957 0.419795 0.332661 -1.28437 -0.171997 0.57128 -1.27629 0.288663 
0.670121 -1.27276 -0.166646 0.490129 -1.24968 0.145407 0.87953 -1.29186 0.214295 
0.970309 -1.38754 0.0887472 0.535618 -1.28035 0.0564812 0.995177 -1.25535 0.443801 
0.648732 -1.33019 0.341102 0.941792 -1.29609 -0.0630788 0.671504 -1.21079 -0.283741 
0.725608 -1.22907 -0.145193 0.791261 -1.30419 -0.0807188 0.820948 -1.34985 -0.0455316 
0.739899 -1.31837 0.177966 0.702641 -1.3551 0.13852 0.859649 -1.29909 -0.0262989 
1.00893 -1.24926 0.0865602 1.06214 -1.27493 0.0385745 0.91226 -1.25105 -0.140043 
0.7869 -1.28885 0.114874 1.10904 -1.28514 0.393751 1.0043 -1.2468 0.189031 
0.818624 -1.24339 0.228995 0.698414 -1.25827 0.11099 0.931405 -1.36158 0.216234 
0.857243 -1.28508 0.118885 1.19578 -1.36102 0.117235 0.947627 -1.35368 0.143773 
1.12381 -1.25909 -0.0981309 1.02645 -1.26091 0.275361 0.763057 -1.22448 0.0950723 
0.992973 -1.3544 0.196339 0.297589 -1.4153 -0.358871 0.199596 -1.37214 -0.327223 
0.0322034 -1.4135 -0.0345993 0.441325 -1.28069 0.531353 0.0339859 -1.41171 0.1913 
0.0880411 -1.32443 -0.107028 0.340215 -1.30687 -0.394474 0.0369043 -1.3621 0.0211667 
0.0326481 -1.34523 0.48821 0.346414 -1.40639 0.1985 0.151683 -1.41314 0.444406 
0.323914 -1.34692 0.532516 0.0880738 -1.39514 0.227361 0.326575 -1.35888 -0.26553 
0.218174 -1.35079 -0.129 0.247955 -1.41429 -0.201214 0.124811 -1.33758 0.15301 
0.3119 -1.29155 0.501987 0.0914786 -1.3372 -0.219842 1.00547 -1.41418 0.472963 
0.234078 -1.40735 0.202615 0.218293 -1.3417 -0.0602065 0.403427 -1.35844 -0.282328 
0.150933 -1.32357 -0.00109714 0.582362 -1.41374 0.215427 0.468988 -1.4131 0.144627 
0.452257 -1.28907 0.341081 0.27384 -1.35696 0.322769 0.194259 -1.36246 0.15758 
0.311494 -1.34572 0.270453 0.802577 -1.4127 -0.226418 0.190213 -1.38814 0.264685 
0.35663 -1.34238 -0.0620903 0.161695 -1.30576 -0.120772 0.394473 -1.41526 -0.141338 
0.293253 -1.3543 -0.0873499 0.465381 -1.33986 0.396011 0.479132 -1.25494 0.394914 
0.297843 -1.35991 -0.0221258 0.358413 -1.34945 0.0162995 0.8009 -1.29763 -0.212211 
0.378927 -1.36167 0.155184 0.336234 -1.34528 -0.179596 0.352543 -1.29995 0.131932 
0.377611 -1.29362 0.256163 0.347364 -1.33269 0.211684 0.525976 -1.23585 0.436721 
0.447917 -1.29515 0.108863 0.734844 -1.25938 -0.210319 1.05805 -1.36702 -0.147653 
0.31019 -1.30423 0.00398255 0.443685 -1.30485 -0.0198139 0.836482 -1.41477 -0.140654 
0.613574 -1.36233 -0.0114331 0.649994 -1.36311 0.27517 0.501478 -1.35076 0.244421 
0.518302 -1.26078 0.345309 1.14793 -1.36794 0.380234 0.628742 -1.36895 -0.0746852 
1.12054 -1.28381 -0.219274 0.725244 -1.29686 -0.116656 0.853562 -1.32465 -0.107634 
0.68695 -1.3636 -0.051465 0.746254 -1.34163 -0.00649265 0.897863 -1.35459 -0.0555532 
1.05007 -1.2361 0.467564 0.635961 -1.31482 0.0923133 0.84097 -1.41501 0.253972 
0.652727 -1.2581 -0.0945814 0.895555 -1.35379 0.0898425 1.09816 -1.31898 -0.00111355 
1.01077 -1.31117 0.00853182 0.813364 -1.37075 0.0466195 0.753401 -1.33959 0.102023 
0.69558 -1.29834 -0.035306 1.05045 -1.34978 0.154924 0.854844 -1.41217 0.0914267 
1.18055 -1.23159 0.410073 0.994622 -1.29004 -0.106004 1.09752 -1.40835 0.172921 
0.963273 -1.37555 -0.0366718 0.971502 -1.31625 0.0849876 0.859221 -1.20954 0.455323 
0.0341698 -1.37732 -0.227728 0.0314945 -1.41421 -0.173467 0.0354917 -1.41021 0.467885 
0.0724074 -1.41424 0.307847 0.083859 -1.37136 0.528368 0.0998689 -1.41553 0.479687 
0.0770177 -1.41064 -0.339164 0.166904 -1.39474 -0.39495 0.384447 -1.36053 -0.403686 
0.0336249 -1.41208 -0.285935 0.0513118 -1.41294 0.0665665 0.264738 -1.4091 0.470981 
0.0355822 -1.41055 0.363981 0.240227 -1.4087 0.370452 0.142624 -1.41182 0.527238 
0.301244 -1.35417 -0.332177 0.142946 -1.41429 -0.331466 0.14581 -1.41471 -0.269127 
0.640456 -1.41014 -0.320176 0.424297 -1.41293 -0.237048 0.11582 -1.41367 0.0604341 
0.097488 -1.34391 0.422083 0.392052 -1.33181 0.529311 0.109645 -1.35188 0.315624 
0.500947 -1.4062 0.400673 0.175012 -1.3714 0.0533458 0.310267 -1.40789 -0.168355 
0.292558 -1.41419 0.0897374 0.209803 -1.40954 -0.0930479 0.355142 -1.3489 0.469606 
0.316696 -1.32226 0.415513 0.29143 -1.40986 0.249618 0.713847 -1.35033 0.518676 
0.207119 -1.35179 0.332052 0.410904 -1.3501 0.349665 0.453617 -1.34853 -0.224171 
0.383523 -1.3558 -0.218959 0.0654502 -1.35874 0.109026 0.455319 -1.40706 -0.173002 
0.243163 -1.35271 0.267313 0.263583 -1.35817 0.128585 0.420479 -1.35384 0.450631 
0.336737 -1.32097 -0.122274 0.457252 -1.41043 0.0499398 0.621459 -1.2862 -0.382271 
0.523283 -1.29211 -0.290439 0.569896 -1.41475 0.0649535 0.518706 -1.2859 0.489652 
0.648231 -1.41098 0.22541 0.55032 -1.35131 -0.29672 0.456609 -1.41397 0.209117 
0.680576 -1.36146 0.394782 1.0727 -1.29141 -0.269875 0.462884 -1.28387 -0.07974 
0.427857 -1.34138 -0.0859233 0.501887 -1.32632 0.0148965 0.438303 -1.34185 0.0377546 
0.529256 -1.33129 0.355549 0.571451 -1.28977 0.535691 0.942795 -1.25487 0.531368 
[...]
POINT_DATA 1274
FIELD FieldData 10
VELOCITY 3 1274 double
-1.8032800955e-05 -2.5946800818e-05 -0.00010775027612 -0.00024930189498 2.5659741815e-05 6.3135096612e-05 -0.00018143614149 -3.9905913955e-05 0.00012889675201 
-5.4508241487e-05 3.7996975414e-05 9.176969931e-05 -0.0001356358869 -3.9765685982e-05 4.959639996e-05 -0.00010384742243 6.0761226462e-05 0.00018829226135 
-0.00024756045161 -4.6866510171e-05 -2.8602567172e-05 -0.0002623605318 -8.8753448991e-07 -0.000143995721 4.1897895389e-06 7.7397996923e-05 -0.00016378043413 
4.4377877436e-05 -0.00010056943305 -0.00012771826059 -0.00014715799659 3.7643679177e-05 2.0202641316e-05 -0.00020851330174 -0.00027979397841 -0.00010212347628 
-4.4930153623e-05 -0.00011225259122 5.2987722989e-05 -9.5565456995e-05 5.0737120049e-06 -7.4936708208e-06 -6.1378899609e-05 1.3115441546e-05 6.1203333043e-05 
3.8717655683e-05 7.4062298331e-05 -3.3358445648e-05 1.0982847367e-05 5.3770654994e-06 -1.5756324942e-05 -0.00029393228069 -0.00013231763459 -4.1221679509e-05 
-1.2351199452e-05 -0.00018193885047 -0.0002116571229 2.0847765957e-05 -3.633790812e-05 0.00011067111715 0.00037086833021 -8.5760537738e-05 2.5821318716e-05 
0.00010644060556 -7.8364859626e-05 -0.0001766717637 7.96531059e-05 -3.0073342653e-05 4.7635614055e-05 -0.00013014136908 -3.853976788e-05 4.387118802e-05 
-0.00010741887228 -9.003361597e-05 0.0002038995707 -0.00018895741 -2.5578698904e-06 6.1512279785e-05 -3.4880788943e-05 -0.00012549137666 -6.9778513887e-06 
-0.00026474380083 -8.738039852e-05 -2.0771385616e-05 -0.00015674422885 -8.7482847007e-05 5.9866607517e-05 -0.00038868181117 -7.3420305962e-05 -1.9624693609e-05 
-0.00017842174702 -5.9796496694e-05 0.00018462039288 -3.7134068276e-05 4.0720011629e-05 -0.00018893211233 -0.00020536394885 -0.00018384640446 -1.841693215e-05 
3.3305258454e-05 -0.00020455747239 -8.3099525327e-05 0.00014633395781 3.6883346945e-05 -4.3655070781e-05 6.2958205797e-05 -0.0001547625013 -9.5875737418e-06 
-0.00012738101279 -0.00015829118887 -0.0001624709632 -4.2291584884e-05 -0.00022750374119 -1.3004674726e-06 -6.3572065448e-05 -0.00011094749149 -6.8304398108e-05 
0.00048365820428 -0.00027518062573 0.00033058379824 -6.7129782306e-05 -0.00031888271352 0.00011114397519 -1.1106243655e-05 1.3881164017e-05 4.4751943849e-05 
-0.00015011838004 -5.8847055581e-06 -0.00011078384729 0.00014767556673 -7.5469822047e-05 -0.00014323021123 -0.00020192525744 2.6166066568e-06 0.00030641514093 
0.00017352398335 -0.00020582760922 9.6371421293e-05 -7.1223497482e-06 -8.3019780573e-05 6.7321581451e-05 -0.00047293856947 6.3195048316e-06 0.00016481788724 
-0.00017453528425 -3.5241223333e-05 -9.7137920505e-05 -6.4831723731e-05 -6.9241025158e-05 -1.8435050377e-05 3.5604604695e-05 -7.5922081431e-05 -7.8848301734e-06 
1.1136310725e-05 -0.00035702299983 0.00010795348461 -0.00017587518673 -4.4962312139e-05 -7.2534301106e-05 -0.00014317691401 0.00011027441319 3.5771930404e-05 
-0.00011803265332 -6.2595237538e-05 0.00014703993733 -9.3026364556e-05 -2.590318422e-05 -8.3007326116e-05 0.00010508384983 -1.2747196972e-05 6.9666313885e-05 
8.500318208e-05 4.7651729062e-06 3.7227253025e-05 -8.3326092859e-05 4.9433857529e-05 5.000757337e-05 -6.8808706382e-05 -2.7227545677e-06 0.00012269902809 
-0.00014679427213 5.1844346541e-07 0.00020886745663 -0.00018448422063 -0.00010317026144 -3.7853845368e-05 -0.00028886441161 -4.7209129044e-05 1.0414356654e-05 
4.0809149807e-06 -5.4837824318e-05 0.00013975961761 -0.00015864978217 -0.00022878076193 0.00022616865395 -9.9110978262e-05 -0.00017921925968 -1.3015874734e-05 
-0.00026010771578 4.2985441129e-05 5.2351918619e-05 -7.4956375307e-05 2.4710051052e-05 4.8855777413e-05 -0.00013817677234 5.0678522337e-05 -1.0344957658e-05 
-9.8732602311e-05 -3.1750462283e-05 6.6549726393e-05 -0.00016221070441 5.8986238596e-05 0.0001883018023 -0.00015354728646 -1.0295434326e-05 -2.2296350584e-05 
-4.1509665638e-06 -7.7631502293e-05 -5.7306957466e-05 -0.0001616258171 6.8368280068e-05 -2.2678901646e-05 3.2344365243e-05 -9.7567359937e-05 -0.0001454016555 
-4.7166996309e-05 -2.2543398346e-05 0.0001511599819 -0.00024466912078 -0.00014068478063 9.2389888317e-05 3.5416387018e-05 -7.3334738725e-05 4.8437904024e-05 
4.7083615789e-05 6.7317589302e-05 0.00022958461175 0.00029866230398 0.00010323537607 0.00011805652139 -0.0002266210776 3.6804212128e-05 7.136920707e-05 
-0.00027316220201 -0.00010950648212 -5.3608662155e-05 -0.00021878281687 -0.00013631023998 9.4541667923e-05 4.2202991468e-05 -0.00010472828749 4.8317202096e-05 
2.4196398755e-05 -0.0002290598963 -0.0001033790485 -0.00011439407288 -4.4850834332e-05 -7.9894843248e-05 0.00019301857414 -0.00017089171919 -0.00012573505051 
0.00021869628649 -0.00013214945765 5.4132246605e-05 5.6559529233e-05 -0.00017879995184 0.00011272107986 2.7845744922e-05 -0.00021531251177 -8.0912809986e-05 
-0.00025476901078 7.0986248265e-05 -2.1672157402e-05 -0.00011426329546 -7.8620650721e-05 -1.3581167521e-05 -0.00011596579763 -1.5106708456e-05 -5.2032552791e-05 
3.1191552198e-05 -0.00026442643885 -0.00020379514507 -4.1280541866e-05 1.7002312509e-05 0.00017204656152 -6.5332965637e-05 -0.00035146147338 -0.00029015371746 
-2.6925237996e-05 4.1269423122e-05 -4.7769956472e-05 0.00020716158807 -7.4794205139e-05 0.00013967095894 2.1098175296e-05 -2.6079434868e-05 -0.00012684770448 
-1.8898946437e-06 -1.3649149245e-05 -8.3269228799e-05 -0.00025165123286 4.3540608987e-05 5.6405038465e-05 -5.4626893178e-06 -3.6025695033e-05 -0.00016092368473 
-0.00019501942919 7.6572808857e-05 5.9867822157e-05 -0.00010926639103 -0.00030627337989 -0.00010387832012 2.2156593557e-05 -0.00011726627695 -0.00020866315287 
-2.4154795746e-05 -0.00026234074338 -0.00011198663672 -5.7559919775e-05 6.2763911411e-06 -0.00015846076542 2.9714162591e-05 -3.8237331374e-05 -0.00012783440585 
9.9055196805e-05 -0.00024820612803 0.00011073825161 -1.6195395491e-05 -5.6059207804e-05 -0.00014360088385 -7.3564398788e-05 -6.414314262e-06 9.0080422426e-06 
9.1009925452e-05 -0.00010545298958 0.00014996777192 -0.0001145228624 -0.00029063139651 6.8366968106e-05 -0.00013935670709 -7.7576447783e-05 -3.5042641498e-05 
7.303379839e-06 2.1844797797e-05 1.2437645767e-05 4.0737785441e-05 -0.00012434288311 -0.00014440433625 -3.7331560267e-05 -5.7438189006e-05 -2.5123506283e-05 
-2.5915385486e-05 -4.004877203e-06 -1.1586894856e-06 -8.3657065793e-05 9.7558673541e-05 -7.8773301991e-06 -5.5867538219e-06 -0.00029238370869 -0.00018637295466 
8.6918314578e-05 -0.0003636528124 -0.00020086324528 8.8315169504e-05 3.8981016163e-05 -0.00012630613951 -0.00017833325562 -1.1980193224e-05 -5.888212109e-05 
-0.00014288308215 -9.6596276412e-05 9.442804426e-05 -7.2642447583e-05 1.0646379089e-05 5.5142276316e-05 -0.00014344970712 -4.1033661159e-05 -0.00011230179746 
-2.0638278201e-05 -4.7902310847e-05 -5.0580696852e-05 1.8139171079e-05 -8.8330046576e-05 -0.00011002995188 -0.00036061470814 -0.00026522517127 0.00040711498805 
-0.00029427531751 -0.00016142901747 7.7190911423e-05 0.00013836616282 -0.00022075835755 -0.00013818146697 -0.00014813892615 8.6367016214e-05 -0.0001197454158 
-0.00016413922439 -0.00018564400189 -6.4452037037e-05 7.1688889836e-05 -3.5142110867e-05 -4.7894170086e-05 -0.00027763504848 -0.00016821897982 -0.00028891241798 
-7.2370101331e-05 -0.0002365346098 1.9125503982e-05 -2.9256770588e-05 -5.0618153778e-06 8.7246104069e-06 -1.9923024742e-05 1.9673365523e-05 -7.485585102e-06 
2.9904719836e-05 -1.4366543342e-05 -1.934878165e-05 -1.0023475667e-05 4.7703723995e-05 0.00019068960001 -3.7704406695e-05 -7.2535259507e-05 -2.7747219538e-05 
-8.9859428084e-05 9.3675389207e-06 -0.00014019759309 3.4739304607e-05 1.8357985487e-05 -3.8961537515e-06 -9.3694386287e-05 -2.2917172158e-05 -4.632189694e-05 
-1.2930827072e-05 1.4368628589e-05 -2.6947770426e-05 -4.0805982651e-05 -2.1945071194e-05 -1.5102875364e-06 -5.0421056208e-05 -4.6129055567e-05 -9.1237602257e-06 
0.00010743154835 -1.379535351e-06 5.1327477753e-05 -2.8152395349e-05 9.6736544375e-06 5.2913604819e-05 -7.5843722735e-05 -4.1246534698e-05 -0.0001129030541 
-6.5400618541e-05 -0.0002066360006 8.242602058e-05 -3.8319156739e-05 4.5068420258e-06 -3.6609067974e-05 -0.00023289145839 5.8531513906e-06 -0.00010997336907 
-8.542165039e-05 0.00019818899763 0.00015598308464 -9.8242331697e-05 5.7615702159e-05 -3.2888750325e-05 -9.7608576965e-05 -6.8312681328e-05 -6.386183715e-05 
-0.00012922419243 7.2097094437e-06 2.4326900354e-05 -0.0001754421149 7.0697924059e-06 2.5430509825e-05 3.3078291435e-05 -3.7172720099e-05 1.9467838608e-05 
-3.7059424193e-05 2.9104141744e-05 -1.8244737878e-05 -0.00016216736437 -4.7562355129e-05 -3.2434725689e-05 0.00028344606201 -6.6426800112e-05 9.3550456862e-06 
-0.00011554972835 1.8985576963e-05 0.00015091118629 0.00011707050858 -8.8524151206e-05 -5.0890865459e-05 -0.0001320210393 -2.2214332264e-05 1.892560766e-05 
-7.9144806664e-05 6.4364711175e-05 1.834433079e-05 -0.000142893972 4.0256216916e-05 0.00014972592175 -0.00019613444261 -5.4243895646e-05 3.839598047e-05 
3.9803120761e-05 -0.00024037112958 0.00010550664065 -0.00011132939231 1.1131197361e-05 8.7677037417e-05 6.4783489098e-05 -8.5023933829e-05 1.0691938609e-05 
-9.4812304893e-05 7.0480615121e-05 -4.2800720938e-05 -0.00021613723706 0.00011343490427 0.00023790231022 -0.00025125763812 6.9581837335e-05 -4.1654397457e-05 
-0.00012641707602 -8.611575842e-06 1.6744628699e-05 0.00013002792461 -0.00024536043059 6.1140393007e-06 -0.00012893528438 3.2445109087e-05 4.9084626193e-06 
5.9320227902e-05 -0.00018617595293 0.00018889807664 -0.00016255386548 -3.0233973353e-05 7.7319001909e-05 -4.6610910163e-05 -0.00012853590814 0.00011615007476 
-5.9279613564e-05 6.4549685647e-05 -9.8306697472e-05 -0.0001260613964 2.2815966252e-05 7.5484131179e-05 -6.6437734573e-05 -2.7314637974e-05 -4.4318085361e-05 
-5.8246956545e-05 -0.00028301352607 8.605571239e-05 3.2720797844e-06 -8.2830764547e-05 5.152653411e-05 6.9341529624e-05 2.8723000579e-05 5.2761428488e-05 
-8.2317082725e-05 0.00018431218025 3.234375837e-05 -9.0582028436e-06 -3.8889593199e-05 5.9111654791e-05 0.00026238565936 -0.00011710242605 -7.9188598956e-05 
5.8203233891e-05 -6.747821788e-05 8.1502821846e-06 8.7045901605e-06 -2.9243876517e-05 9.1438926814e-05 -0.00017435995196 -0.0002269907023 -0.00012478355583 
-0.00014797547808 -7.1065859468e-05 -6.1910372424e-05 -5.9618489018e-05 -4.5151226998e-05 -3.9100866457e-05 7.3306111209e-05 -2.6941097767e-05 -0.00018689078354 
-1.5566716767e-05 -8.6561460184e-05 -0.00015081929905 -0.00025154637904 -6.3595828227e-05 8.2355284852e-05 1.0406302811e-06 -3.9273820535e-05 0.00011883390204 
8.7122262214e-05 4.6108902812e-06 -0.00022007250499 8.5812313786e-05 -0.00012531921766 -8.0307182426e-05 -6.5211620872e-05 -7.3852352997e-05 0.00022147990196 
-4.291679894e-05 -0.00010445297421 -0.00010731003167 -0.00023656882828 -0.00069790763791 -0.00060784730099 -6.3570615225e-05 -1.1239093531e-05 0.00011665486759 
9.7783536633e-05 -0.00010413221576 -6.1162111598e-06 -0.00013660406903 -1.5190936664e-05 5.1243092186e-06 -0.00027500473779 -0.00025310487769 -0.0004045204756 
-8.7227346641e-05 1.0775104264e-05 -4.6323385382e-05 -4.9089123792e-05 2.8648975252e-05 9.3054125247e-05 0.00018835507674 0.00012421903922 0.00015654657062 
3.2701901058e-05 -0.00014564990702 -0.0001648759096 3.1449435872e-06 -0.00013419516458 7.8250841534e-05 -9.4190811005e-05 -0.00015628551208 -0.00014269565138 
-0.00018605204301 -0.00066483868104 -0.00024362844958 0.00010566083662 0.00016458585327 -0.00016870946122 4.0625630682e-06 3.3215960345e-05 -8.4192423055e-06 
1.5271445704e-05 -1.7393186962e-05 -6.5764906264e-05 -7.6077359584e-05 2.7579858307e-06 -2.3526468305e-05 1.4129557172e-05 -0.00026128623676 0.00017444876791 
5.3384199195e-05 -0.00016800752611 -2.8972354651e-05 1.1499442973e-06 -1.1713080109e-05 1.1953824807e-05 1.7302865638e-05 1.0004509875e-05 5.3476683139e-05 
-7.1251480169e-06 5.3337784996e-05 -0.00017980423795 -9.6805134365e-05 -1.8998669392e-06 9.2827959903e-07 -0.00029443980521 0.00020185548811 -0.0001854699569 
-8.7475816752e-05 -2.5541112907e-05 2.8720062662e-05 -3.5379708058e-05 4.5030018013e-05 1.9067160765e-05 -4.3083903408e-05 -1.2720377976e-05 -3.193858982e-05 
-5.6314370926e-05 -0.00011612335369 0.00014800919836 -0.00061799765896 7.3975390183e-12 0.00080473983804 -0.00016570308314 4.5312066086e-05 6.3434367071e-05 
-6.3536082749e-05 -5.2654493324e-05 -5.2206153128e-05 -6.5256037772e-05 0.00015389870159 -8.7480575297e-05 -0.00012871333756 5.7702042411e-06 9.5660095781e-06 
-0.00013565516554 1.751583e-05 -8.1444932588e-05 0.00011489961942 -0.00016304114136 0.00014186665208 -1.2702463615e-05 2.391145113e-05 -1.2213967781e-05 
-7.8614415707e-05 -7.4243490357e-05 -4.0687823764e-05 -1.5760799885e-05 2.0053750828e-05 0.00012671084375 -0.00012964569451 1.7916239235e-05 2.5727941961e-05 
-0.00024670253342 -3.2366135615e-05 5.6736968844e-05 -0.00012957470493 -7.5798183266e-05 3.0560164921e-05 -0.00017664145509 7.6386823723e-06 -2.6866831884e-05 
-0.00012767309607 -4.0270827406e-05 6.0131117365e-05 8.6099183157e-05 -4.0421934101e-07 -0.0001523284269 -5.9002544779e-06 -0.00016488606913 1.5341879547e-05 
0.0001273814933 -8.909932485e-05 -3.1227052174e-05 3.4082643817e-05 2.6081855392e-05 8.0740158251e-05 -5.4629214759e-05 -5.341429551e-06 0.00013695691669 
2.9925083139e-05 -7.7318537733e-05 -1.5465123683e-05 -0.00017623529521 -6.9387289787e-05 -6.4437239072e-05 -0.00012092630946 -8.0763651034e-05 6.4663230356e-05 
-0.000129434031 -2.3415064686e-05 2.8289594827e-05 -0.00020057546637 -2.976386796e-05 1.0943374706e-05 9.1198073174e-05 -0.00017617051985 -9.6256233165e-05 
-5.3118854033e-05 -5.3595449419e-06 -4.0014660639e-06 4.5792444446e-06 0.00016088739087 -0.00012513755743 -0.00015717691086 3.6446062095e-06 -9.5401639202e-06 
-3.691919044e-05 3.146409553e-05 -2.2427637586e-05 -5.2122832253e-05 -2.3215101398e-05 5.1132950115e-05 -5.6704529121e-05 -0.00017131948693 5.7487801426e-05 
-3.1644712809e-05 -2.4078141945e-05 -2.686814542e-05 -4.4581587796e-05 -0.00037858163208 8.833196914e-05 -1.1934499911e-05 -2.9207184717e-05 1.9091955882e-05 
-0.00019789543217 -8.6029021226e-06 -1.1000422411e-06 -5.3620061092e-05 -5.1740512881e-05 -1.3008092562e-05 -4.4867761485e-05 -2.1769171854e-05 8.3793460769e-05 
-1.4757192621e-05 -7.3683255568e-05 -0.00013642204968 -4.0684948132e-05 -0.00010378280552 0.00013911296952 -0.00019211209192 -7.327193809e-05 -1.6952115774e-05 
-0.00013114490498 -0.00021429186274 -6.6073725828e-06 8.0233675036e-05 1.8383447408e-05 5.4295261436e-05 -4.6323663201e-05 -9.2133670629e-05 2.9923687771e-05 
8.2686138627e-05 -0.00010195496489 -0.0001254128273 5.6985948803e-05 -0.00023427713357 -0.00037350311146 -0.00017826785695 -5.0758321839e-05 0.00016205562727 
3.9833089611e-05 8.6816802561e-05 0.00012055845903 -0.00011993638076 -0.00012970922524 -9.6589054832e-06 8.5346352546e-06 1.0899273092e-06 1.2635042791e-05 
0.00015062198378 -4.4149792987e-06 3.6613559822e-05 0.00012059981627 -1.5621196692e-05 1.3663852393e-05 -0.0002345228063 -7.01652891e-06 -0.00021807779789 
-5.9809137973e-05 -0.00026203781832 -0.00013675095882 -0.00011544145236 7.4369359371e-06 -3.6326849813e-06 -4.4471178751e-05 -0.00027726227854 -0.00021543076219 
7.8420469992e-06 -9.9074204764e-05 -3.820728877e-05 0.00021310966957 -0.00012724336601 1.1177418008e-05 -0.00015513569088 -4.26018319e-05 0.00024176278896 
-0.00018428310761 -0.00012538477977 -0.00017640186458 6.2835213679e-05 9.0823856841e-05 -0.00014622088334 -1.8324889233e-05 2.1223666159e-05 0.00019474328722 
0.0001514725127 -0.00021743274987 -3.8645869384e-05 0.0001517013621 9.6120821962e-06 0.00016053793085 -0.00031958571476 -4.2019549088e-05 -0.00027600847785 
-0.00014581909804 -5.977809799e-05 9.8557411625e-05 -9.2913774924e-05 0.00012056191209 3.0905151766e-06 -0.0002317638928 -0.00019350291836 -0.00037770776294 
1.6159830068e-05 -4.6939347117e-05 -0.00020079232123 -0.00013863142148 0.00018526398666 -9.1487002057e-05 -1.5676810427e-05 -2.5445198342e-05 -6.0009805638e-06 
-5.3744686453e-05 3.5150294195e-12 0.00021754223253 -0.00019475749906 9.2410768308e-05 -3.368196338e-05 9.9917935418e-05 2.0754927007e-05 0.00040352494888 
0.00011747902061 1.7424533577e-05 -0.0001293276376 -4.5586587831e-06 5.4135070516e-05 8.3202864733e-07 2.2232023794e-05 3.0520928547e-05 1.5435875149e-05 
2.1736592439e-05 2.0971912099e-05 -6.0965319828e-05 -3.0809950889e-05 -2.2479023025e-05 -1.2067144515e-05 -0.00023493769791 6.2521235397e-07 -1.0958982193e-06 
3.4362242746e-05 -3.5401630452e-07 0.00014692201742 0.00012198578799 2.6176465067e-06 6.833830546e-05 -0.00019960664353 -1.6956811432e-06 0.00026082532609 
-0.00013855670948 -7.2409054149e-05 0.00014408016402 2.301237853e-05 -6.812853293e-05 -2.6454800258e-05 -1.8791565245e-05 9.5607131313e-05 -1.0598528587e-06 
4.7134049407e-05 -2.7394895594e-06 0.00012388798867 -2.4971169985e-05 1.8392101567e-06 7.8007917711e-06 -4.9838651065e-05 2.4014472798e-12 -0.00010956749741 
5.240789818e-06 3.6331590937e-05 -3.1298918062e-05 -8.1474018621e-05 4.6306033183e-06 -1.3537583829e-05 -1.0043596003e-05 1.6175049384e-05 0.00012758819854 
4.9410900939e-05 -1.0084946113e-05 -0.00024024606854 -0.00010067082317 -4.464134563e-05 -0.00012307594068 -2.3397279985e-05 7.9752749924e-05 -4.1976476027e-05 
4.2170700992e-05 -1.5682177208e-05 -3.4496645623e-06 -7.1982073342e-05 -0.00020993895983 -5.4685794134e-06 -0.00015225502257 -3.4252198693e-05 8.5828523354e-05 
-7.4829867431e-05 5.1447321812e-06 1.0402056715e-05 -5.5830765752e-05 -1.139938897e-05 5.798719239e-05 -1.4924347848e-05 2.1767178169e-05 0.00013400706093 
-9.217196943e-05 2.3893952334e-07 5.9163818073e-05 -0.00025872109944 -3.3068703262e-05 3.5087686641e-06 -1.0253587981e-05 -6.7493948619e-05 -1.754240136e-05 
0.00010844661808 2.3436706024e-05 8.3386228938e-05 -8.8813540884e-05 3.6468646617e-05 -6.0852633422e-05 -0.00014285648557 5.3193465988e-05 9.624367115e-05 
-0.00018707155622 6.237053777e-06 -1.8116102898e-05 -7.0364132807e-05 -2.8913880342e-06 1.9221199638e-05 -0.00015903139365 -6.5396620693e-05 9.3010647259e-05 
3.6180902481e-05 -8.2230085681e-05 1.4245755973e-05 -0.00015026371617 -0.00015312828395 0.00016552381848 4.2097310167e-05 -0.00028057811484 -9.7417490395e-05 
-0.00024704159083 -2.8076042082e-05 -2.2922289443e-05 9.331973117e-05 -9.59153432e-06 -5.5165581314e-05 -0.00031927175494 -1.8300862573e-05 0.00012513475239 
-0.00026758127287 5.7964445467e-05 9.1625107279e-05 1.5048555422e-05 2.5982841391e-05 -2.0721403987e-05 5.0999334e-05 -0.00012888702999 -0.00020467464334 
-0.00012335634495 -1.0407539175e-05 9.3771332015e-05 -8.7418555052e-05 -0.00014294749725 6.2307696957e-05 -0.00017896438319 0.00011091543065 2.8171543043e-05 
-0.00024895924675 3.7366434146e-05 0.00018434205496 2.7530799098e-05 4.7934519524e-05 -2.928564397e-05 -3.1476058565e-05 1.2728715346e-05 1.5659302614e-05 
-0.00019428661493 -0.00023965729184 -1.232047924e-05 -6.4998107345e-05 -9.2674028672e-05 -2.4234403074e-05 2.2163982869e-05 -0.0002119254683 -1.944174338e-05 
-5.8450528811e-05 9.5201656948e-06 2.1933643414e-05 -0.00011849336177 -7.1003360159e-05 -3.845971246e-06 0.00015989644481 -9.6426474364e-05 -3.7013971166e-05 
5.6462826743e-05 -0.00019695857805 -0.00031798482499 -0.00023638011088 -0.00024920610045 -0.00029001373291 -0.00015567801979 -5.1741819604e-05 7.777792663e-06 
1.3608199752e-05 -3.008944456e-05 -0.00031185721634 -0.00011126941304 1.8831008604e-12 4.9845776734e-05 4.7036417159e-05 -3.6679026308e-05 -0.00020595391006 
-4.0125005248e-05 0.00018987348805 0.0001156474655 -0.00031442280287 -0.00011846395224 8.633007849e-05 -7.6136425699e-06 9.3788901484e-06 -0.00010780538106 
-8.2583128254e-05 -8.9120091309e-05 0.00018047337305 -0.00018594879512 -0.00017636358948 -1.1557368675e-05 -5.8840922761e-05 -3.4035157617e-05 -5.0907271728e-06 
0.00018297832139 4.4926710881e-05 -5.9616742788e-05 4.7024680227e-05 4.0216652202e-05 -4.2488303546e-05 -8.4048581099e-05 2.6518052796e-05 -2.6365339457e-05 