# vtk DataFile Version 4.1
vtk output
ASCII
DATASET POLYDATA
POINTS 34 float
0 -1.4457 0.0658468 0 -1.4457 -0.434153 1 -1.4457 -0.434153 
1 -1.4457 0.565847 0 -1.4457 0.565847 2 -1.4457 0.0658468 
2 -1.4457 0.565847 2 -1.4457 -0.434153 2 -0.945701 -0.434153 
2 -0.945701 0.565847 2 -0.445701 -0.434153 2 -0.445701 0.565847 
0 -0.445701 0.565847 0 -0.445701 -0.434153 0 -0.945701 -0.434153 
0 -0.945701 0.565847 1 -0.445701 -0.434153 1 -0.445701 0.565847 
2 1.7 0 0 1.7 0 0.7 0 0 
1.3 0 0 0.7 0 0.3 1.3 0 0.3 
2 1.7 0.3 0 1.7 0.3 1.65 0.85 5.55112e-17 
1.3 0 5.55112e-17 1.65 0.85 0.3 2 1.7 5.55112e-17 
0.35 0.85 0.3 0.35 0.85 0 0.7 4.44089e-16 0.3 
0.7 4.44089e-16 0 
POLYGONS 40 160
3 0 1 2 
3 0 3 4 
3 5 0 2 
3 0 5 3 
3 5 6 3 
3 7 5 2 
3 8 5 7 
3 9 6 5 
3 10 11 9 
3 10 9 8 
3 5 8 9 
3 12 13 14 
3 12 14 15 
3 14 0 15 
3 0 4 15 
3 1 0 14 
3 14 2 1 
3 14 13 16 
3 8 2 14 
3 14 16 8 
3 8 16 10 
3 7 2 8 
3 15 4 3 
3 15 17 12 
3 9 15 3 
3 15 9 17 
3 9 11 17 
3 6 9 3 
3 18 19 20 
3 18 20 21 
3 22 23 24 
3 22 24 25 
3 26 27 23 
3 26 23 28 
3 29 26 28 
3 29 28 24 
3 30 31 19 
3 30 19 25 
3 32 33 31 
3 32 31 30 

CELL_DATA 40
FIELD FieldData 1
MATERIAL_ID 1 40 int
0 0 0 0 0 0 0 0 0 
0 0 0 0 0 0 0 0 0 
0 0 0 0 0 0 0 0 0 
0 0 0 0 0 0 0 0 0 
0 0 0 0 
POINT_DATA 34
FIELD FieldData 1
VELOCITY 3 34 double
0 0 0 0 0 0 0 0 0 
0 0 0 0 0 0 0 0 0 
0 0 0 0 0 0 0 0 0 
0 0 0 0 0 0 0 0 0 
0 0 0 0 0 0 0 0 0 
0 0 0 0 0 0 0 0 0 
0 0 0 0 0 0 0 0 0 
0 0 0 0 0 0 0 0 0 
0 0 0 0 0 0 0 0 0 
0 0 0 0 0 0 0 0 0 
0 0 0 0 0 0 0 0 0 
0 0 0 
