# vtk DataFile Version 4.1
vtk output
ASCII
DATASET UNSTRUCTURED_GRID
POINTS 1274 float
0.513633 0.552285 0.0379536 0.469891 0.65028 0.105117 0.488692 0.596019 0.268458 
0.495123 0.586675 0.0983203 0.424078 0.754969 0.0323158 0.424679 0.767906 0.120036 
0.47585 0.636735 0.21289 0.45952 0.669148 0.268648 0.394494 0.843733 0.0586834 
0.39869 0.812063 0.165319 0.446536 0.69781 0.21443 0.433334 0.737536 0.265756 
0.363419 0.901377 0.0319696 0.344335 0.966793 0.0526133 0.381642 0.877641 0.14637 
0.395299 0.8432 0.231727 0.345839 0.956355 0.260015 0.314659 1.03752 0.0387204 
0.391417 0.912541 0.0864217 0.448689 0.898265 0.110088 0.332771 0.994893 0.130154 
0.409048 0.914061 0.218456 0.31063 1.03721 0.265121 0.35232 0.928735 0.187608 
0.282229 1.10035 0.0485065 0.328379 0.986833 0.20091 0.286814 1.10772 0.260298 
0.258401 1.16087 0.0336644 0.357722 1.11442 0.10302 0.302238 1.06804 0.10909 
0.289868 1.24994 0.0382188 0.30323 1.0445 0.200261 0.283957 1.09955 0.172131 
0.333691 1.25414 0.0922174 0.386012 1.15635 0.0380161 0.275964 1.14746 0.110139 
0.422087 1.14871 0.10607 0.261096 1.14956 0.208257 0.340187 1.10592 0.211165 
0.218848 1.25575 0.0332148 0.320768 1.18433 0.053934 0.319867 1.15584 0.17361 
0.245109 1.19814 0.164338 0.287349 1.18245 0.26484 0.239486 1.22112 0.093269 
0.372979 1.22987 0.0356631 0.236707 1.22984 0.236242 0.216106 1.25572 0.149179 
0.540468 0.470828 0.0302088 0.611514 0.295695 0.0937949 0.595685 0.358367 0.122586 
0.597156 0.347028 0.198766 0.576443 0.388029 0.2665 0.610938 0.312351 0.26222 
0.541184 0.468826 0.209681 0.509234 0.556575 0.218257 0.603569 0.328473 0.0358989 
0.566522 0.417872 0.159142 0.484083 0.623855 0.0378758 0.607826 0.473496 0.0457501 
0.546151 0.474574 0.0985148 0.549889 0.447369 0.268472 0.565242 0.570748 0.262773 
0.527716 0.511729 0.159758 0.551306 0.667867 0.0308607 0.44563 0.710888 0.07908 
0.517676 0.697186 0.106852 0.472069 0.752432 0.178372 0.551755 0.547645 0.102298 
0.52302 0.657106 0.266704 0.446479 0.696622 0.145279 0.41541 0.776454 0.214606 
0.501022 0.679844 0.1693 0.55523 0.57659 0.168086 0.494416 0.778966 0.0923 
0.535999 0.759532 0.146413 0.459606 0.81361 0.0363729 0.508531 0.723332 0.039754 
0.484731 0.816877 0.150782 0.4375 0.83505 0.112842 0.365032 0.892992 0.269731 
0.499718 0.768564 0.260788 0.538886 0.616471 0.219029 0.563633 0.746778 0.220164 
0.468229 0.814688 0.213651 0.507452 0.704411 0.225997 0.460015 0.88832 0.0399346 
0.520351 0.852342 0.0355943 0.536205 0.78982 0.0326235 0.454127 0.874682 0.177589 
0.49602 0.848729 0.0949228 0.463937 0.869133 0.260663 0.438793 0.802467 0.269008 
0.417762 0.951187 0.0373627 0.373707 1.08831 0.0325887 0.466284 1.00348 0.0331274 
0.401233 0.995585 0.0953842 0.416635 0.947003 0.151231 0.469299 0.963692 0.0916594 
0.485392 0.939673 0.263386 0.41979 0.971562 0.261479 0.535394 0.9817 0.2689 
0.461374 0.94965 0.20353 0.384251 1.02273 0.0323966 0.365771 1.05306 0.0846994 
0.462962 1.03146 0.0900379 0.363022 1.062 0.158281 0.395877 1.00375 0.196772 
0.441932 1.05021 0.264238 0.377373 1.02822 0.267487 0.483267 1.00204 0.236995 
0.458117 1.13462 0.0385421 0.47056 1.08224 0.123023 0.427751 1.04096 0.139465 
0.360686 1.08932 0.269156 0.52729 1.17737 0.175903 0.490173 1.10095 0.267884 
0.407679 1.08732 0.213501 0.4302 1.13257 0.264219 0.445566 1.11912 0.167082 
0.358626 1.15943 0.260112 0.511431 1.1863 0.0381466 0.499005 1.14579 0.120468 
0.438037 1.20446 0.034193 0.370065 1.2003 0.101183 0.381406 1.13238 0.165507 
0.338837 1.23585 0.260952 0.453328 1.16639 0.207953 0.403107 1.20565 0.222573 
0.469579 1.19 0.26612 0.487834 1.25428 0.0362705 0.312971 1.21148 0.137284 
0.461053 1.2481 0.225603 0.300407 1.21192 0.203878 0.475256 1.21044 0.169998 
0.373714 1.22615 0.164195 0.639314 0.232182 0.180228 0.563766 0.413664 0.0317389 
0.660135 0.192698 0.0576226 0.660163 0.287899 0.213272 0.640288 0.240839 0.263508 
0.668793 0.174814 0.207417 0.642354 0.224342 0.11588 0.630802 0.403865 0.0363494 
0.59173 0.421894 0.0892836 0.527347 0.509009 0.265843 0.606356 0.485472 0.263219 
0.617252 0.291416 0.158597 0.639947 0.376958 0.24679 0.614373 0.459269 0.135601 
0.588818 0.545655 0.0375218 0.660834 0.421957 0.100925 0.534743 0.635056 0.131166 
0.605747 0.527594 0.147104 0.576735 0.52311 0.212078 0.593118 0.432433 0.220389 
0.613243 0.622859 0.266297 0.60377 0.716373 0.0390329 0.555426 0.608823 0.0643364 
0.570386 0.732213 0.0992151 0.566819 0.696352 0.158312 0.600316 0.708543 0.268226 
0.59266 0.633138 0.175515 0.645734 0.637824 0.211678 0.571682 0.670975 0.224573 
0.597758 0.756887 0.159918 0.587385 0.665821 0.0954262 0.639431 0.785823 0.039032 
0.562228 0.794179 0.091009 0.540734 0.812732 0.190009 0.545729 0.830776 0.261831 
0.616618 0.772982 0.265258 0.515324 0.871711 0.211654 0.625772 0.707105 0.201762 
0.600622 0.819244 0.221315 0.58536 0.83585 0.0347552 0.561207 0.857614 0.0930945 
0.565855 0.907536 0.0397018 0.504057 0.942043 0.0315437 0.552321 0.908215 0.260437 
0.598839 0.965558 0.265548 0.528693 0.861499 0.146359 0.506455 0.921037 0.170715 
0.536277 1.00101 0.0517671 0.52329 0.913941 0.104507 0.473084 1.05751 0.190933 
0.469554 0.99431 0.15546 0.538091 0.987502 0.13732 0.518593 1.04481 0.269178 
0.57054 0.943428 0.192214 0.436726 1.0646 0.0347798 0.538733 1.12279 0.0335702 
0.573433 1.06259 0.0351738 0.504304 1.06211 0.0328709 0.552297 1.1061 0.0954765 
0.522555 1.04872 0.104039 0.542381 1.00713 0.208998 0.503251 1.12385 0.204921 
0.539296 1.23238 0.0892664 0.574883 1.21003 0.032288 0.564444 1.17492 0.122877 
0.52277 1.08837 0.153326 0.605222 1.08557 0.268672 0.540756 1.23604 0.159343 
0.534219 1.21056 0.237648 0.567483 1.12769 0.179402 0.557113 1.07152 0.214931 
0.55385 1.13497 0.259468 0.64054 1.20519 0.0423969 0.622778 1.20747 0.109801 
0.465603 1.21306 0.100975 0.648094 1.23387 0.22145 0.59609 1.19658 0.186235 
0.773198 1.16508 0.205734 0.678933 0.131008 0.0398409 0.69326 0.119625 0.114941 
0.721562 0.0322025 0.193181 0.682126 0.133991 0.265509 0.697611 0.0950674 0.183879 
0.636816 0.261703 0.0387314 0.696819 0.315048 0.0396602 0.70172 0.225554 0.151084 
0.704814 0.26538 0.267352 0.64014 0.404812 0.173414 0.695562 0.199648 0.267448 
0.679306 0.326219 0.266701 0.663573 0.33622 0.138191 0.678021 0.456906 0.0404988 
0.655611 0.493134 0.096694 0.650868 0.353897 0.0774844 0.68508 0.465987 0.157058 
0.650829 0.45912 0.216842 0.682376 0.278583 0.104606 0.730096 0.411701 0.19832 
0.691312 0.353679 0.201638 0.612226 0.642759 0.0351632 0.659824 0.52395 0.0349315 
0.635888 0.557816 0.0895493 0.595819 0.600097 0.119713 0.648487 0.604691 0.156765 
0.664337 0.6818 0.26213 0.639844 0.544021 0.269081 0.687759 0.580483 0.207477 
0.617681 0.57709 0.209623 0.67454 0.544837 0.150282 0.678751 0.514253 0.206512 
0.630269 0.713174 0.122804 0.658378 0.65157 0.0929707 0.697976 0.571428 0.0977001 
0.709392 0.625055 0.140708 0.716988 0.64582 0.206595 0.662425 0.820447 0.268702 
0.665882 0.66997 0.16061 0.624556 0.801 0.117313 0.648346 0.874179 0.0391019 
0.689777 0.759206 0.0794361 0.707611 0.699854 0.0854914 0.681215 0.761434 0.149035 
0.63798 0.77329 0.203176 0.697248 0.71449 0.205206 0.614496 0.865172 0.265677 
0.582134 0.870327 0.183485 0.615142 0.966585 0.037251 0.668552 0.982642 0.0766069 
0.632047 0.866959 0.106587 0.644676 0.925216 0.0880701 0.587426 0.905454 0.124623 
0.610155 0.96505 0.138842 0.6356 0.982303 0.209841 0.679081 0.846636 0.147877 
0.635562 0.91996 0.233753 0.643687 0.861311 0.206202 0.632238 0.913978 0.169138 
0.63137 1.10623 0.0300625 0.642348 1.03713 0.0387265 0.694897 1.08952 0.0358769 
0.575161 0.954504 0.0904628 0.595887 1.01843 0.0954628 0.667984 1.04077 0.115197 
0.578669 1.02867 0.260319 0.614245 1.02288 0.162023 0.672757 1.02872 0.183434 
0.616513 1.0876 0.0906417 0.623115 1.14105 0.138204 0.69747 1.16243 0.0370852 
0.595583 1.15184 0.064552 0.581997 1.07465 0.145726 0.624286 1.05397 0.217058 
0.742183 1.12963 0.0836246 0.63697 1.13081 0.223711 0.661392 1.08996 0.167766 
0.60365 1.19345 0.26361 0.75013 1.20939 0.033559 0.792529 1.17868 0.102054 
0.690853 1.16775 0.106121 0.673784 1.19599 0.168661 0.677351 1.18535 0.261546 
0.721483 0.0827791 0.0341654 0.753266 0.120693 0.0773451 0.718085 0.0492756 0.12058 
0.78411 0.0576994 0.127646 0.723605 0.0411037 0.262266 0.735906 0.105121 0.244166 
0.707628 0.241243 0.0350563 0.749528 0.180089 0.0391967 0.768062 0.266081 0.030452 
0.735671 0.178801 0.110671 0.726998 0.156045 0.172423 0.755963 0.166199 0.263424 
0.774176 0.229499 0.154585 0.770035 0.241359 0.263001 0.732099 0.208841 0.212735 
0.70383 0.390722 0.0363954 0.766239 0.327914 0.0314021 0.721677 0.33311 0.103306 
0.747418 0.25063 0.0926446 0.734422 0.417152 0.0925128 0.765318 0.37291 0.128378 
0.704638 0.387704 0.141713 0.748768 0.31862 0.262893 0.732949 0.280738 0.197306 
0.697044 0.420996 0.260497 0.72468 0.510482 0.0890644 0.750299 0.462924 0.0378084 
0.795551 0.481812 0.0867924 0.755164 0.467652 0.137215 0.791421 0.418112 0.171535 
0.676201 0.491058 0.266652 0.804766 0.511654 0.264175 0.772573 0.398078 0.260581 
0.742065 0.480518 0.245393 0.717841 0.546905 0.263652 0.670673 0.597083 0.0391148 
0.693144 0.663632 0.031532 0.738397 0.530841 0.17674 0.761959 0.578951 0.122603 
0.678629 0.611919 0.2674 0.753511 0.584397 0.216347 0.743205 0.620215 0.267491 
0.673412 0.723358 0.0313707 0.747193 0.746057 0.111482 0.757616 0.689967 0.0384708 
0.72832 0.75342 0.0312097 0.747216 0.653767 0.0969896 0.740519 0.69127 0.261132 
0.689223 0.813924 0.208723 0.72758 0.689981 0.147411 0.751984 0.743512 0.178941 
0.682101 0.747367 0.269539 0.702266 0.932028 0.0399808 0.718038 0.850575 0.0346077 
0.681931 0.82233 0.084313 0.694618 0.885593 0.0949771 0.740581 0.808319 0.159093 
0.739052 0.835117 0.260085 0.727428 0.765494 0.233604 0.681319 0.883367 0.265521 
0.712342 0.875383 0.208252 0.688049 0.948503 0.268914 0.718038 1.01751 0.0398218 
0.726314 1.06642 0.0890952 0.728814 0.949176 0.107489 0.689615 0.943645 0.20585 
0.672111 0.974185 0.139029 0.692314 0.916097 0.149771 0.731529 1.00653 0.154702 
[...]
POINT_DATA 1274
FIELD FieldData 10
VELOCITY 3 1274 double
0.00045698041473 -0.0010929381366 1.8437964906e-05 0.00030222132259 -0.00060134543057 8.3503272317e-05 0.00064765733993 -0.0015083466832 1.7381469034e-05 
0.00054968439038 -0.00014567358217 -0.0018791350002 0.00057695467866 -0.0009159414647 -6.5757319376e-05 0.00037951808904 -0.0005854005759 0.00037721562149 
7.2423025756e-05 -0.00028387387473 -0.00050092711048 -0.00015275525451 -0.00082731035415 -5.4389649477e-05 0.00034072099999 -0.00082274799627 -3.2056395543e-05 
2.8886639196e-06 -0.00072465537131 0.00040496780991 0.00042895771187 -0.00052518862792 0.00076276898314 0.00040054152448 -0.0011606760502 -3.9760625691e-05 
0.00021749396762 -0.00088698466188 -2.4939991541e-05 0.00047333353198 -0.00099598789355 0.00042156905915 0.00029198327873 -0.00071272458817 -4.7826172029e-05 
0.00033599025374 -0.00070666088639 -4.856019085e-05 0.00029171287124 -0.00067202551024 0.00015677615471 0.00041808892186 -0.0010385809438 1.6676436298e-05 
0.00067661187508 -0.0010427622534 -0.00014020023014 0.00058027047497 -0.00069158773612 0.00022083155823 0.00038196966168 -0.00098769349974 0.00032116464686 
-1.3035390287e-05 -0.00073411135734 0.00021928626928 0.00022943022522 -0.0005958740968 -0.00017895218869 0.00026692161655 -0.00055451806263 -0.00020501002302 
0.00040008311652 -0.00099656289575 -0.00032245231441 0.00021883550365 -0.00066559186003 0.00017332057554 0.00022578275316 -0.0005971788098 1.5615470339e-05 
0.0005846846856 -0.0014270286634 3.7375507522e-05 0.00041908655714 -0.00096588308256 -0.00077258611589 0.00030979948938 -0.00077150058481 0.0001588417173 
0.00015096574451 -0.0018241432761 3.4280735218e-05 0.0003127759707 -0.00063272894696 -2.7645096891e-05 0.00028458966591 -0.00072784434336 -0.00017945429549 
0.00045609340201 -0.001142281076 -0.00030402970158 0.0010510180312 -0.0011608531395 0.00056783977939 0.00029450658942 -0.0007663327649 8.7504052197e-05 
0.00036243752261 -0.00089672233505 -0.00028446795705 0.0003119970921 -0.00073415515051 -0.00014714596635 0.0001633017008 -0.00088344258947 -5.2543739788e-05 
0.0002691958467 -0.00062499663265 5.7491565688e-06 0.00070098641249 -0.0016067533948 -0.00024433605395 0.0004185163426 -0.000655807375 3.4989740881e-05 
0.00027967790806 -0.00063783924845 -3.7680641265e-05 -1.1249000448e-06 -0.00061766001098 5.4034943661e-06 0.00033903576757 -0.00080730922725 -0.00014769753816 
0.00051440895976 -0.0013377696611 8.7292652129e-06 0.00020820383165 -0.00047855650849 -0.00018100844605 0.00028008711102 -0.00069032413995 -0.00022262650838 
-7.1589585201e-05 0.00047666029442 1.2580173301e-05 -0.0014507800887 -0.00012973395389 -0.00082607722638 0.00015319618259 -0.00040877296055 0.00088907497048 
0.00029998324415 -0.00073468704948 0.00068224684638 0.00045257141774 -0.0025775682765 -0.00081347788792 0.00092412762244 -0.002327939542 -0.00052375903533 
0.00050943037663 -0.00098296790161 -0.00074393431122 0.000449777172 -0.0011587111816 -0.00054838049 0.00012015967559 -0.00031589418716 -1.3268810624e-05 
-0.00020763347421 0.00086744849492 -0.00098124916012 -7.7370599491e-05 -0.00011447295543 -7.5368597297e-05 -0.000710101004 -0.0010609825206 -0.00071364278765 
7.6337381056e-05 -0.00035594916922 -3.7010272569e-05 0.00037412200783 -0.00063177503985 2.7875390227e-05 -0.00029973325707 -0.00077351720597 -0.00013808548459 
5.0433038172e-05 -0.00046984033774 0.00014236551219 0.00093733388266 -0.00018423563435 -0.00056148250153 0.00010751349256 -9.343258924e-05 0.00031482223955 
0.00016439626259 -0.00055962844232 0.00078606453087 6.9779129695e-05 -0.00066747239721 -0.00026651190168 -3.2112012902e-05 -0.00028304436405 0.0010210875089 
0.00010230667541 -0.0012256180107 0.0001449880807 0.0001012935371 -0.00020280889505 -0.00058698400724 0.00025427579034 -0.00057645211005 0.00039726961042 
-1.8642804645e-05 -0.00023777381712 -0.00036222176336 0.00084024851372 -0.00065134766425 0.00010949353761 0.00022589451636 -0.00047149318901 -6.5713681643e-05 
0.00038708428181 -0.0016565379996 0.00073448798812 0.00027469982645 -0.0008006555368 0.00012546038249 0.00014972331103 -0.0010797455302 0.00027128910529 
0.00029116702012 -0.0008793966135 0.00019102979388 -1.4790286014e-05 -0.00052363452202 0.00035418023849 0.0002571245018 -0.00073849561489 2.1385396787e-05 
0.00016790637248 -0.00058789757373 -0.00024444690915 0.00022052932521 -0.0011309879602 0.00049531126166 0.00034623192861 -0.0011712718364 0.00014843011294 
0.00029074439387 -0.00087889525522 0.00031714586057 0.00058596213964 -0.0014621063068 -0.0010875997686 -5.3438773494e-05 -0.00081504395079 -0.00017041836246 
-0.00016455156535 -0.00098770691653 0.00011581769705 7.4675247098e-05 -0.00071328487993 -0.00042108408258 -3.8185173728e-05 -0.00081502938172 0.00010715743115 
0.00033025675697 -0.00080354344562 -0.00013803816266 -0.0006802467171 -0.00053554937868 -3.3040459435e-05 7.8225514241e-05 -0.0010305170473 6.5016190474e-05 
0.00039646635887 -0.00053500059469 4.981734397e-05 0.00013481590281 -0.0009404611154 -4.9279360529e-05 0.00045838702306 -0.0008831716292 2.3995391646e-06 
0.00061759133622 -0.00079692762727 0.00025864233425 0.00060187856639 -0.00089194772811 0.00022993086808 0.00060503824113 -0.00065658559509 4.4023832451e-05 
0.00017510654277 -0.00087236649032 0.00074295464849 0.00038270306425 -0.00062468247437 -9.106288054e-05 0.0002202615617 -0.00090791006752 1.8039825996e-05 
0.00052587569423 -0.0019730101009 0.00036706607579 0.00039318964508 -0.0011503847366 -3.0896616818e-05 0.00025563916331 -0.0011175778528 -5.9641754737e-05 
-0.00031104298153 -0.00081658613895 3.5277220556e-05 0.00025494483142 -0.00074086281535 -0.00017787000358 0.00023146655214 -0.00074172092714 2.9697484481e-05 
0.00021725435357 -0.00054520054035 1.4497241317e-05 0.00011396503597 -0.00086191888658 0.00025832875786 -6.8299437167e-05 -0.0010472566429 0.00034577492571 
0.00096911944053 -0.0011779226702 -0.00010911040184 -2.6402319353e-05 -0.00070277304482 -0.00030513075422 0.00032563142762 -0.0010657402976 0.00062189941233 
-0.00012483789567 -0.00087832897288 -8.5057484829e-06 0.00051869751892 -0.0010623571042 0.00015885942226 0.00026267478445 -0.00089649759126 3.0661148556e-05 
2.1458752723e-05 -0.00089002837698 8.4499420039e-05 0.00026130543489 -0.0007564014879 -3.9281323463e-06 0.00024948556351 -0.0011115997569 0.00020535943751 
-0.00012542398585 -0.00089448336192 -3.6261558681e-05 0.00059750293275 -0.0007939466831 6.6291675584e-05 0.00029425818472 -0.00083305473618 0.00017711301936 
0.00070974395155 -0.00085069981411 -6.5225745987e-06 -0.00014216570735 -0.0013794448106 0.00067471700807 0.00027180260488 -0.00077584120159 -0.00036617917254 
0.00033979323497 -0.00079030969669 8.8842015208e-06 -2.749150312e-05 -0.001059895247 0.00019912090328 0.00063524337485 -0.00073315522026 0.001134023023 
0.00033836279984 -0.0007431483399 -2.0451587692e-06 0.00064102785479 -0.00078258062491 -1.5671878687e-05 0.00029130824912 -0.00070650415498 1.9292083233e-05 
0.0006883037059 -0.00073403065642 -0.00011483160799 0.00020438141057 -0.00070528982142 2.0265189856e-05 0.00024988240214 -0.0012861944938 0.00014995116001 
0.00018149459617 -0.0019638015298 0.0008941098598 -7.2986246472e-05 0.0002645839422 0.00036919312128 -4.5292523952e-05 0.00051093630684 -0.00021145488701 
7.7436547142e-05 -0.00026238648648 0.00053537703455 -0.00067333243114 -0.00080384858913 -0.00040986056178 -0.00010044442744 0.00026173894227 0.00046947516385 
-3.8532570902e-05 8.3025118229e-05 0.00013653046333 -0.00025549616635 0.00035115966355 0.00033787090314 -0.0017570869103 -0.0015435480486 0.00027481888695 
0.00068199935747 6.1490307688e-05 -0.0001192505762 0.00033799212028 -0.00084095286704 -8.9693130418e-06 0.00054503314906 -0.0010087985273 -0.00010618078099 
0.0001093338201 0.00086270941425 -0.00049206829344 0.00064584829476 -0.00030160300508 0.0010726822772 0.001062191649 -0.00097339203921 0.0010643095286 
0.00048201334987 -0.0006681788014 -2.1562729107e-05 0.00075522352931 -0.0007740745611 -0.00039716427344 -0.00025872929137 -0.00057590393781 0.00034746041153 
0.00047954285778 -0.00079010660713 -0.00079175450273 0.00065390079587 -0.00068890436486 0.0004071955902 -0.00042599388299 -0.0003472576559 0.00082845470199 
-0.00022686450325 -0.00035502262546 9.5825348487e-05 -0.00015689253511 -0.00097062984983 2.0508069179e-06 -4.8919249324e-05 -0.00083656901964 -0.0002765488184 
8.4280124099e-05 -0.00028431483385 -0.00012942953195 0.00070020426173 -0.0012593163263 0.00028514729798 0.00036366442286 -0.0010070035091 1.3786809846e-05 
0.00054221333204 -0.00074095479907 0.00053101872235 0.00084393216345 -0.001961076441 0.00019640197114 -8.6890048051e-05 -0.0010903400501 5.8286585508e-05 
-0.0011252279008 0.0010527857382 -0.00021534212892 9.6404916556e-05 -0.00032285003593 -0.0003760723339 0.00019130403684 -0.0010282264218 -8.2489625755e-05 
0.00021870709886 -0.0011353246585 0.00036407504881 -0.00048857645829 -0.00054531013209 3.5240549972e-05 0.00037188491487 -0.00076554637291 7.6449276797e-05 
-0.00038841685608 0.00010987771768 -1.412716484e-05 -0.00016257722811 -0.00074337920152 0.00031946922026 0.00011918995151 -0.00046792382429 0.00046213407714 
0.00013752693847 -0.0010011473308 -0.00027167439496 0.00017973022463 -0.00095686864387 0.00023925398653 0.00025422029603 -0.0011019032669 4.4828938211e-05 
-3.6534480182e-05 -0.00095244276094 -0.00011410833471 6.6942666449e-05 -0.00083969847833 5.5052123449e-05 8.6694204375e-05 -0.00074228201843 -9.6570202367e-05 
0.00038948948418 -0.00074731998955 0.0001422356979 -8.6015332478e-05 -0.00051086303489 0.00014525405585 0.00039323948044 -0.0014514997192 -0.00031675244164 
0.00037224843863 -0.0011375440831 0.00037888024217 0.00049611198761 -0.00092770814313 -0.00039211375249 0.00017915930791 -0.00081892758945 0.00052326138686 
0.00048998304039 -0.00084203294732 0.00046160653802 0.00018140533473 -0.00069104134036 -0.000347319299 0.00023839070437 -0.00096892164865 2.1358650742e-05 
0.00012327987853 -0.0006277795563 3.1474765334e-05 0.00019409304062 -0.00099081500781 9.5013008387e-05 0.00010841826569 -0.0010093467776 -5.6133510848e-06 
0.00023449035153 -0.0011931227336 1.6729565144e-06 0.00024888860415 -0.0013764930533 9.9250803398e-07 0.00010963106124 -0.00097548960575 -3.0431294398e-05 
-0.00037799361209 -0.00079015585699 -2.3180629579e-05 -0.00023406572139 -0.00077820404958 5.0083775242e-05 0.00016508443958 -0.00083919772727 0.0001937547773 
0.0003034208932 -0.00097174728928 -7.8731191142e-05 0.00055288660972 -0.00078714400525 -1.3825532341e-05 0.00032491091209 -0.00099071302881 -3.4891228736e-06 
-2.9331658441e-05 -0.0011878894523 0.00019603344458 0.00018718006789 -0.00088237980825 5.6670725765e-06 0.00034109875131 -0.0010179830672 -9.0118247122e-05 
0.00012216601748 -0.00040565071223 -7.3032611405e-05 0.00023503224702 -0.0012118657007 -0.00066913827315 -0.00023311981631 -0.00071556544428 -2.7566456657e-05 
0.0004157206673 -0.00068907055775 -1.0942279391e-05 0.00059371264036 -0.0010464597196 -0.00020999708869 0.00045222893822 -0.0013000250744 -0.00021744718356 
0.00034435068087 -0.00084088705413 0.00016745808207 0.00049890649597 -0.00092130953279 -3.3739508483e-05 0.00040833069325 -0.00078098818923 -3.7610469902e-05 
1.752929933e-05 -0.0012313095467 -4.8394980532e-05 -2.2498705193e-05 2.063816753e-06 -0.00020562498777 -1.8353847077e-05 -0.00018203546256 0.00052832456467 
3.025903754e-06 1.2669241006e-05 0.00028051335276 -5.3852213508e-06 6.6328188895e-05 -5.446489897e-05 -8.1909343473e-05 0.00024848216595 0.0010335401257 
-0.00011248543778 -0.00047614634371 0.00014026060494 -0.00065502600324 -0.00011565245902 -0.00044968874715 -0.00077500192105 0.00040592098827 0.00054482044319 
0.00021609682743 -0.00083976487372 -0.00022283612457 -8.6441091114e-05 -0.0009305122134 -0.00013550455008 0.00020584686929 -0.00010240651349 9.8253489697e-06 
0.0028261991652 -0.0003146819361 8.7933740287e-06 -0.00091306861357 -0.0006718122294 0.00043258517692 -0.00054735243437 -0.00078605176497 -0.0010253328504 
0.00027521515875 -0.00050103856712 -0.00033257527278 0.00024503717887 -0.0010900780749 2.7301037482e-05 9.5084757577e-05 -0.00095414660127 -0.0001876548545 
0.00079429036814 -0.0027519700363 0.00039668910482 0.0015318916982 7.0021087449e-05 0.00034277054771 0.00075798448945 -0.00043053763981 0.00072259708626 
0.00044184174752 -0.00012722749445 0.00013195205708 0.00029070112144 -0.00089142862176 0.00052686120475 -0.00033983942376 -0.00062136844155 -4.1647131664e-05 
0.00011654758728 -0.00060273133898 0.00021723937729 0.00012865943194 0.00011559429083 -0.00015843285221 6.8045288574e-05 -0.0019237248292 -3.0686300089e-05 
0.00024946723653 -0.0013366629311 -5.185092551e-05 0.00042828182285 -0.00084130311021 4.7780584771e-06 -7.207254786e-05 -0.0010838415109 -0.00044388445997 
-6.2841466509e-05 -0.00043541546164 0.00047429524622 0.00083882666591 -0.00056595005525 0.00051104479994 -0.0007168227571 -0.0016957812877 -0.00029104371383 
0.00063842845489 -0.0011580962179 0.00042877816265 6.7889669836e-05 -0.0014386969229 0.0006138316723 0.00054674445431 -0.0025233606126 -0.00093883430977 
-7.4269756662e-06 -0.0011434486724 0.00013362596739 -3.4430342355e-05 -0.0010383418732 0.00023719505557 0.00077792441378 -0.0013738482186 -7.829412188e-06 
-9.8786521108e-05 -0.0015210343281 0.00042226873094 0.00043257546327 -0.00081024313456 0.00016900293881 0.00011714087191 -0.000662363232 1.3047075619e-05 
0.00011531110037 -0.0009591573283 0.00016841481972 -0.00063019699432 -0.0011242196963 -0.00077932050685 -5.6691038828e-05 -0.00028890110474 0.00010015436872 
0.00060876326596 -0.0024099362289 0.0003598952934 0.00046130897712 -0.0016325832935 -0.00024435086708 0.00058707989003 -0.0012218829245 1.5018096381e-05 
-0.00016167704093 -0.00085735417838 0.00049691341282 0.00022196177028 -0.0012576902226 6.478549748e-05 0.00011017242363 -0.00096397810833 0.00011712849588 
0.00086910183564 -0.00061329667596 0.00021595922931 0.00043854495305 -0.00060822049042 -1.9586333501e-05 0.0003514419358 -0.0010911673544 -7.4563907912e-05 
0.00022343585268 -0.00090630439567 -0.00020149770109 0.00031708462943 -0.0012922699694 -0.00017297881211 0.00089106880441 -0.0010292558773 -5.4119590843e-05 
-4.4649575592e-05 -0.0012267360308 0.000290808451 0.00021160366754 -0.0015179888585 -0.001261642976 -0.00018430188343 -0.00068315134445 0.00019671121835 
0.00042084067409 -0.0006495319335 -5.8560159657e-06 0.00024391512732 -0.0012570715954 -0.00064318375502 0.00016693064518 -0.0011500891506 2.7610667934e-05 
0.00033961092522 -0.0012087125825 0.00015264305501 0.00074753695433 -0.0011472965578 -0.00011813539909 0.00040374751312 -0.00069547135955 4.9610193778e-06 
0.00018125651615 -0.00081459849727 -0.00044077184176 4.6150596989e-05 -0.0011721008617 3.8259814224e-05 0.00023448866603 -0.0010854481471 -0.00023662231818 
-4.766887567e-05 -0.0011389063455 -0.00023262233093 0.00020479457286 -0.0011127732146 0.00010742865605 0.00048573643977 -0.001202227635 2.5552578991e-05 
0.00012672875329 -0.0009067387385 -4.0294122607e-05 -0.00016290549762 -0.0015024696114 -0.00032939671233 -1.0134549755e-05 -0.00083535588513 -0.00012083966873 
0.00037320506598 -0.0010888901792 0.00020138246982 0.00039591670922 -0.00089000750677 9.4325884284e-05 6.5753348821e-05 -0.0011424688987 0.00012555489937 
0.00011642701597 -0.00055464213899 -2.2771174522e-05 0.00065488409658 -0.001310052484 -1.9998994373e-05 0.00044575166756 -0.0012633039647 0.00048626066046 
0.00047955104265 -0.00081438926692 -3.0302383633e-05 0.00050278630895 -0.0010409853623 7.4530864069e-05 5.3404685128e-05 -0.00079378786618 0.00040370346849 
0.00025552979136 0.00011938064409 3.2258577289e-05 8.794571297e-05 -0.000783457423 0.00047924359753 6.7591711242e-05 -0.00012426427351 0.0014011498068 
-0.0004880605126 -0.00080627053067 0.0014439519939 0.00013266690979 -0.00025775907281 -1.0666199271e-05 0.00048372629638 0.0003711874424 0.00047363189177 
0.00037705643059 -0.00022421278794 0.0010704509708 -0.001016740038 -0.0011071946444 -0.00036900942071 1.89693587e-05 0.001589133645 -0.00082875921218 
0.00030827117982 -0.00031072500695 0.0011682400717 -0.00055888614981 6.7885916089e-06 -0.00066474254369 -0.0002351695623 -0.00060304798661 7.990338717e-05 
0.0012585942728 0.00022681853684 -0.00027489181508 0.00043476114229 -0.00057563999848 1.9404750012e-05 8.307307182e-05 -0.00033723797687 0.00013402684402 
0.00068257160752 -0.00025144213575 0.00039121305636 0.00025539555035 -0.00086960358844 0.0008499225832 0.00054824187282 -0.00030205366226 -3.9197336656e-05 
-0.00019467260039 -0.00034851593443 8.0577850252e-05 0.00095479107949 -0.00091261246924 0.00010604819634 0.00058642256521 -0.00050477460904 0.00050784658901 
0.00029716772533 -0.00060573151933 0.00015243312139 0.00020031220106 -0.0007147195741 0.00027918196199 -0.00026634817482 -0.00011040520442 0.00092296984418 
-0.00038232118087 0.00070768792324 -4.738936175e-05 -0.00067091413337 -0.0016164975165 0.0010928986043 -0.00060993633123 -0.00042333976115 2.2512941653e-05 
-0.00059857148658 -0.0027059129839 0.00094448730212 0.00049266684448 -0.00029852414841 0.0015679811089 0.00054483807768 -0.00074109259048 0.0013630311916 
0.0012824550748 -0.00028583857642 -7.1819472003e-05 -0.00074638379508 -0.00029202529922 0.00036615089985 -0.00058765096459 -0.0005402577456 -0.00010840948827 
0.0004848978143 -0.00023423358522 -0.00028623290306 0.00016806604206 -0.00020773540971 1.6436568109e-05 -0.00015840505364 -0.00086325535868 2.4392322981e-05 
0.00019275618306 -0.00073479058052 0.00042248327152 0.00014183094827 -0.0014998070315 0.00022114864575 4.4879050788e-05 -0.00046125648579 0.00049895331339 
-0.00049487242299 -0.0020382425672 6.7904349746e-05 -0.00012884263813 -0.00090450524319 6.8680378262e-06 -0.0007133399875 -0.0010315452661 -0.00033610130657 
-0.00021030852435 -0.00071217850689 8.865843124e-05 -0.00072900045013 -0.001162834779 -0.00064037687256 -0.00016937750389 -0.00092456755216 -0.00022306433268 
-3.6913303693e-05 -0.00076584876969 -6.5882310422e-06 -0.00049777492137 -0.0007339663667 -0.00051891684205 0.00023102579509 -0.00088551146879 6.17559099e-05 
0.00039158492149 -0.0010362050352 -9.7719807654e-05 -0.00013273531969 -0.00094069944262 -7.1556904035e-05 0.00017604365311 -0.00082756940842 0.00042589421764 
-0.0004056145631 -0.0012079397349 4.9049251459e-06 0.00028164662268 -0.00064414956137 8.542632479e-05 0.00046140593646 -0.00099047853494 2.2123188559e-05 
-0.00028535658629 -0.00062320048754 -0.00073930504951 0.00041518588458 -0.00095609452551 -0.00011232156512 0.00043218281504 -0.00080802444161 5.2432931378e-05 
0.00027161910517 -0.0011166785549 -1.3835346849e-05 -0.00051615898499 -0.00063610020282 0.0001035339802 0.00018097674336 -0.0011785047713 -3.02942769e-05 
-0.00019001618928 -0.00099821210942 0.00032119783867 -0.00047870056598 -0.0010408514973 -5.1903533446e-06 0.00021104073804 -0.001253317368 2.7106251532e-05 
0.00044284087986 -0.0012945581448 -0.00024711761804 0.00017037305654 -0.00086733117296 4.4304626554e-05 0.00051461036733 -0.0012208823039 -2.624132527e-05 
0.00015557885483 -0.00068165255616 -1.0853109178e-05 -0.00083296302794 -0.0018881676608 0.00018040090468 0.00040559369248 -0.00103454374 -8.5609080064e-05 
0.00015732411989 -0.00060763967162 -4.4854078913e-05 0.0001469849676 -0.00096658943196 -3.2369298829e-05 1.8577205151e-05 -0.0012086148303 -7.9215525305e-05 
0.00020553481625 -0.00090928673198 -5.858488798e-05 0.00082930797591 -0.0010231874882 5.8094956873e-06 0.00024010222652 -0.0013289473935 -0.0001934386895 
0.00026178984821 -0.0012715070999 5.1599886021e-05 0.00019097928352 -0.00075132084185 -0.00013481927508 -0.00010134885743 -0.0013594828187 -0.00021685875429 
-0.00010405023202 -0.0010500618847 9.0282754137e-06 0.00021644246404 -0.0012791080497 -0.00011891565875 0.00042602411536 -0.00089800073781 0.00024425384784 
9.0507263297e-05 -0.001197047079 3.7437790569e-05 0.0001354917795 -0.00067490500887 -0.00046814609721 -2.517483635e-06 -0.00095687617959 -9.5472577077e-06 