# vtk DataFile Version 4.1
vtk output
ASCII
DATASET UNSTRUCTURED_GRID
POINTS 1274 float
0.513624 0.552307 0.0379535 0.469886 0.650292 0.105116 0.48868 0.596049 0.268458 
0.495118 0.586686 0.0983282 0.424072 0.754984 0.0323158 0.424674 0.767917 0.12003 
0.475848 0.636741 0.212894 0.459521 0.669162 0.268648 0.394487 0.84375 0.0586832 
0.398686 0.812075 0.165311 0.446526 0.697834 0.214438 0.433326 0.737557 0.265756 
0.363412 0.901394 0.0319696 0.344327 0.966812 0.052604 0.381636 0.877655 0.14637 
0.395293 0.843215 0.231726 0.345833 0.956369 0.260012 0.31465 1.03754 0.0387204 
0.391403 0.912561 0.0864244 0.448675 0.898277 0.110085 0.332763 0.994913 0.130151 
0.409046 0.914075 0.218455 0.310625 1.03722 0.265121 0.352315 0.928747 0.187612 
0.28222 1.10037 0.0485134 0.328374 0.986846 0.200906 0.28681 1.10774 0.260298 
0.25839 1.16089 0.0336644 0.357715 1.11444 0.103033 0.302232 1.06806 0.109093 
0.289865 1.24997 0.0382188 0.303225 1.04451 0.200262 0.283951 1.09956 0.172135 
0.333682 1.25416 0.092223 0.385992 1.15638 0.0380069 0.275957 1.14747 0.110137 
0.42208 1.14873 0.106078 0.26109 1.14957 0.208261 0.340184 1.10593 0.211167 
0.218843 1.25576 0.0332148 0.320754 1.18436 0.0539367 0.31986 1.15585 0.173609 
0.245104 1.19815 0.164339 0.28735 1.18246 0.26484 0.239479 1.22114 0.0932718 
0.372968 1.22989 0.0356631 0.236703 1.22985 0.236246 0.216101 1.25574 0.149184 
0.540476 0.470825 0.0302088 0.611516 0.295691 0.0938031 0.595683 0.358372 0.122573 
0.597151 0.34704 0.198754 0.576436 0.388046 0.2665 0.610919 0.312398 0.26223 
0.541178 0.468841 0.209681 0.509224 0.556598 0.218264 0.603567 0.328479 0.0358989 
0.566524 0.417869 0.159143 0.484084 0.623855 0.0378758 0.60784 0.473517 0.0457641 
0.546148 0.474581 0.098515 0.549882 0.447386 0.268472 0.565244 0.570763 0.262773 
0.527711 0.511741 0.159754 0.5513 0.667879 0.0308608 0.445626 0.710898 0.0790745 
0.517674 0.697195 0.10684 0.472063 0.752447 0.178369 0.55175 0.547653 0.10229 
0.523023 0.657128 0.266704 0.446477 0.696626 0.145288 0.415403 0.77647 0.214601 
0.501022 0.679856 0.169312 0.55522 0.576603 0.168089 0.494412 0.778983 0.0922982 
0.535994 0.759548 0.146412 0.459599 0.813626 0.0363729 0.508529 0.723347 0.039754 
0.484726 0.816893 0.15078 0.437494 0.835061 0.112841 0.365027 0.893006 0.269731 
0.499713 0.768577 0.260788 0.538887 0.616489 0.219032 0.563629 0.746793 0.220166 
0.468225 0.814701 0.21365 0.507442 0.704436 0.226005 0.460015 0.888335 0.0399333 
0.520354 0.852361 0.0355982 0.5362 0.789837 0.0326235 0.454127 0.874701 0.177587 
0.496013 0.848745 0.0949257 0.463948 0.869146 0.260663 0.438791 0.802487 0.269008 
0.417754 0.951197 0.0373627 0.373701 1.08833 0.0325887 0.466279 1.0035 0.0331274 
0.401224 0.995603 0.0953782 0.416624 0.94702 0.151225 0.469287 0.963704 0.0916544 
0.485388 0.939692 0.263373 0.419784 0.971577 0.261479 0.535389 0.981719 0.2689 
0.461362 0.949691 0.203523 0.384243 1.02275 0.0323966 0.365766 1.05308 0.0847011 
0.462968 1.03148 0.0900414 0.363018 1.06202 0.158283 0.395872 1.00376 0.196771 
0.441929 1.05022 0.264238 0.377369 1.02824 0.267487 0.483268 1.00206 0.236987 
0.458098 1.13465 0.038542 0.470558 1.08225 0.123025 0.427744 1.04097 0.139458 
0.360688 1.08933 0.269156 0.527281 1.17739 0.1759 0.490169 1.10097 0.267884 
0.407681 1.08733 0.213499 0.430194 1.13259 0.264219 0.445562 1.11914 0.167079 
0.358628 1.15945 0.260112 0.51142 1.18631 0.0381467 0.499 1.14581 0.120465 
0.438023 1.20448 0.034193 0.370069 1.20032 0.101169 0.381401 1.1324 0.165515 
0.33883 1.23586 0.260952 0.453328 1.16641 0.20795 0.403095 1.20566 0.22255 
0.469574 1.19002 0.26612 0.487822 1.25429 0.0362705 0.312966 1.21149 0.137283 
0.461038 1.24812 0.225605 0.300403 1.21193 0.203878 0.47525 1.21047 0.169996 
0.373711 1.22619 0.164177 0.639316 0.232177 0.18022 0.563768 0.413659 0.0317389 
0.660133 0.192702 0.0576114 0.660172 0.2879 0.213273 0.640287 0.240842 0.263508 
0.668794 0.174812 0.207416 0.642357 0.224337 0.115875 0.630808 0.403885 0.0363493 
0.591735 0.421907 0.0892855 0.52734 0.509026 0.265843 0.606349 0.485488 0.263219 
0.617253 0.291415 0.158606 0.639937 0.376971 0.246782 0.614362 0.459285 0.135608 
0.588809 0.545668 0.0375218 0.660826 0.421978 0.100931 0.534737 0.63507 0.131169 
0.60574 0.527611 0.147102 0.576729 0.523125 0.212076 0.593113 0.43245 0.220388 
0.613249 0.622871 0.266297 0.603773 0.716391 0.0390329 0.555426 0.608838 0.0643399 
0.570377 0.732234 0.0992079 0.566813 0.696371 0.158304 0.600307 0.708564 0.268226 
0.592646 0.633155 0.175507 0.645717 0.637864 0.211672 0.571681 0.670994 0.224569 
0.597753 0.756905 0.15992 0.587383 0.665829 0.0954303 0.639428 0.785844 0.039032 
0.562223 0.794201 0.0910083 0.540742 0.812746 0.190008 0.545724 0.830789 0.261831 
0.616615 0.773001 0.265258 0.515327 0.871726 0.211646 0.625768 0.707126 0.201752 
0.600619 0.819265 0.221316 0.585354 0.835868 0.0347552 0.561202 0.857636 0.0930932 
0.565857 0.907556 0.0397017 0.504057 0.94206 0.0315438 0.552316 0.908229 0.260437 
0.598833 0.965572 0.265548 0.528691 0.861512 0.14636 0.506445 0.921067 0.170721 
0.536269 1.00104 0.0517588 0.52328 0.913958 0.104514 0.473083 1.05753 0.190921 
0.469546 0.994324 0.155454 0.538086 0.987517 0.137325 0.51859 1.04483 0.269178 
0.570539 0.94344 0.192214 0.436721 1.06462 0.0347798 0.538731 1.12281 0.0335703 
0.573429 1.06261 0.0351738 0.504299 1.06214 0.0328709 0.552296 1.10612 0.0954765 
0.522562 1.04874 0.10404 0.542386 1.00715 0.208997 0.503247 1.12386 0.204918 
0.53929 1.23239 0.0892679 0.574872 1.21004 0.032288 0.564438 1.17494 0.122876 
0.522771 1.08839 0.153322 0.605218 1.08559 0.268672 0.540749 1.23606 0.159344 
0.534217 1.21057 0.237649 0.567479 1.12771 0.179416 0.557117 1.07154 0.214932 
0.553843 1.13498 0.259468 0.640529 1.20522 0.0424015 0.622768 1.2075 0.109806 
0.465597 1.21308 0.100972 0.648084 1.23389 0.22145 0.596081 1.19659 0.186236 
0.773197 1.16511 0.205734 0.678933 0.131008 0.0398452 0.693259 0.119629 0.114924 
0.721562 0.0322025 0.193185 0.682125 0.133991 0.265509 0.697613 0.0950629 0.183859 
0.636817 0.261711 0.0387315 0.696812 0.315053 0.0396601 0.701724 0.225552 0.151077 
0.704808 0.265397 0.267352 0.640138 0.404828 0.173417 0.69556 0.199649 0.267448 
0.679294 0.326234 0.266701 0.663566 0.336217 0.13819 0.678032 0.45692 0.0405066 
0.655597 0.49314 0.0966893 0.650881 0.353923 0.0774876 0.68508 0.466013 0.157056 
0.650813 0.45916 0.216833 0.682373 0.278583 0.104604 0.730082 0.41171 0.198306 
0.691304 0.353686 0.201635 0.612223 0.642776 0.0351631 0.659831 0.523963 0.0349317 
0.635885 0.557826 0.0895465 0.595815 0.600102 0.119717 0.648484 0.604723 0.156764 
0.66433 0.681828 0.26213 0.639835 0.544039 0.269081 0.687759 0.580505 0.207486 
0.617681 0.5771 0.209613 0.67453 0.544866 0.150288 0.678749 0.514275 0.206513 
0.630258 0.713194 0.1228 0.65838 0.651598 0.0929588 0.69797 0.57145 0.097704 
0.709392 0.625076 0.140705 0.716987 0.645842 0.206591 0.662415 0.820472 0.268702 
0.665881 0.669993 0.1606 0.624553 0.801011 0.11731 0.648342 0.874194 0.0391019 
0.689774 0.759225 0.0794335 0.707624 0.699876 0.0855094 0.681207 0.761452 0.149031 
0.637976 0.77331 0.203176 0.697244 0.714512 0.205204 0.614486 0.865197 0.265677 
0.582139 0.870342 0.183475 0.615136 0.966611 0.037251 0.668551 0.98266 0.0766052 
0.632029 0.866973 0.106584 0.644666 0.925229 0.088071 0.587417 0.905474 0.124627 
0.61015 0.965073 0.138844 0.635592 0.982329 0.209843 0.679063 0.846656 0.147877 
0.635563 0.919983 0.233748 0.643682 0.86134 0.206223 0.632239 0.914 0.169132 
0.631365 1.10625 0.0300625 0.642344 1.03716 0.0387386 0.694893 1.08954 0.035877 
0.575157 0.954524 0.0904644 0.595871 1.01845 0.095465 0.667979 1.04078 0.1152 
0.578665 1.02869 0.260325 0.614243 1.0229 0.162022 0.672754 1.02874 0.183439 
0.616512 1.08762 0.0906433 0.623112 1.14107 0.138202 0.69746 1.16245 0.0370852 
0.595581 1.15186 0.0645528 0.582002 1.07468 0.145734 0.624287 1.05399 0.21706 
0.742176 1.12966 0.0836206 0.636962 1.13082 0.22371 0.661389 1.08998 0.167763 
0.603648 1.19346 0.26361 0.750117 1.20941 0.033559 0.79252 1.1787 0.102044 
0.690843 1.16777 0.106121 0.673775 1.19601 0.16866 0.67735 1.18537 0.261538 
0.721489 0.0827852 0.0341654 0.753272 0.120706 0.0773401 0.718083 0.049279 0.120554 
0.784107 0.0577044 0.127625 0.723603 0.0411075 0.26227 0.7359 0.105121 0.244152 
0.707629 0.241249 0.0350563 0.749546 0.180107 0.0391969 0.768065 0.266083 0.0304522 
0.73568 0.178799 0.110669 0.727002 0.156051 0.172423 0.755966 0.166211 0.263424 
0.774151 0.22949 0.154589 0.770027 0.241369 0.263001 0.732094 0.208849 0.212734 
0.703818 0.390727 0.0363955 0.766232 0.327915 0.0314018 0.721666 0.333115 0.103308 
0.747419 0.25064 0.0926433 0.734402 0.41717 0.0925107 0.765307 0.372925 0.128364 
0.704628 0.387712 0.14171 0.748763 0.318635 0.262889 0.732959 0.280746 0.197306 
0.69705 0.420984 0.260497 0.724693 0.510516 0.0890426 0.75031 0.462933 0.0378083 
0.795562 0.481845 0.0867837 0.755156 0.467659 0.137183 0.791407 0.418128 0.171522 
0.676193 0.491077 0.266652 0.804755 0.511658 0.264175 0.772586 0.398089 0.26058 
0.742055 0.480519 0.245395 0.717838 0.546909 0.263652 0.670668 0.597098 0.0391149 
0.693148 0.663644 0.031532 0.738391 0.530865 0.176734 0.761957 0.578972 0.122596 
0.67864 0.611959 0.2674 0.753513 0.584414 0.216347 0.743218 0.620236 0.267491 
0.673415 0.72337 0.0313707 0.747204 0.746081 0.111497 0.757616 0.689987 0.0384753 
0.728321 0.753437 0.0312097 0.747229 0.653786 0.0969967 0.740513 0.691291 0.261132 
0.689215 0.81395 0.208725 0.727583 0.690001 0.147414 0.751981 0.743527 0.178933 
0.68211 0.747391 0.269539 0.702262 0.932043 0.0399809 0.718035 0.850591 0.0346077 
0.681928 0.822348 0.0843148 0.694612 0.885612 0.0949801 0.740575 0.808332 0.159097 
0.739047 0.83514 0.260086 0.727439 0.765507 0.233601 0.681315 0.88339 0.265521 
0.712346 0.875404 0.208246 0.688054 0.948525 0.268914 0.718033 1.01754 0.0398217 
0.726305 1.06644 0.0890981 0.72881 0.949194 0.107488 0.689608 0.943671 0.205849 
0.672107 0.974198 0.139027 0.692318 0.916114 0.149775 0.731521 1.00654 0.154704 
[...]
POINT_DATA 1274
FIELD FieldData 10
VELOCITY 3 1274 double
0.00045417558803 -0.0010429553813 3.0038344487e-05 0.00015084226845 -0.00070076448619 -7.0401706112e-05 0.00061977482926 -0.0014860021634 -3.009952149e-06 
0.00030246412722 -0.00017128956709 -0.0011499341679 0.00057648513893 -0.000936583496 -6.5781617835e-05 0.00038523448187 -0.00058045792842 0.0003911290234 
7.1451170934e-05 -0.00025372940825 -0.00059330357155 -0.00014231973661 -0.0009017314983 -8.6971107225e-05 0.00036660919133 -0.00086033232733 -3.0431905126e-05 
7.4804735216e-05 -0.00074235078211 0.00041030909901 0.00040698523239 -0.00054470337366 0.00066853659783 0.0004289191837 -0.0012192478241 -5.2412590503e-05 
0.00020202889249 -0.00087958494593 -2.1004948414e-05 0.0004825722295 -0.0010163958019 0.00046002996411 0.00032644098498 -0.00076821688493 -0.00011274426818 
0.00037738951851 -0.00074749970594 -6.1051360101e-05 0.00031912948929 -0.00073344555451 0.00014797569085 0.00042786396453 -0.0010591684853 2.8119761505e-05 
0.00073485087347 -0.0010951807444 -0.00016092538735 0.00077372295722 -0.00060042828658 0.00020227324803 0.00039668784407 -0.001031525723 0.00031074462977 
5.280967109e-05 -0.00077588818366 0.00016114029058 0.00024432014236 -0.00060274802231 -0.00016466706317 0.0002867793117 -0.00060931786814 -0.00022989422214 
0.00040940548632 -0.0010058830983 -0.00037023133961 0.00024768337741 -0.00072634275998 0.00014864598399 0.00023261770904 -0.00062755315664 1.3309115936e-05 
0.00057886554305 -0.0014024713152 1.4979092818e-05 0.00041133344823 -0.00095235203665 -0.00084762492894 0.00032009227857 -0.00079207817242 0.00011130527711 
0.00014426382453 -0.0018431749351 2.3590338758e-06 0.00034175272483 -0.00068259556612 -6.2217204682e-06 0.00030603624966 -0.00078438695566 -0.00018524510656 
0.00042134385178 -0.0011028315267 -0.00027948536171 0.001037550641 -0.0011505821907 0.00056034564614 0.00030028738637 -0.00077642979884 0.00010504432356 
0.00033727056424 -0.00081515978728 -0.00032409327997 0.00032341523772 -0.00077086574761 -0.00016326423733 0.0001482344326 -0.00086174999659 -8.6230047268e-05 
0.00026940272863 -0.00062712196951 9.8744656134e-06 0.00070877690955 -0.0015941413197 -0.00020177287299 0.00043172532274 -0.00063375535674 7.4508103736e-05 
0.00028375721575 -0.00064926504541 -3.4909562086e-05 2.9394881272e-06 -0.00060316664403 6.4571949006e-06 0.0003467279887 -0.00082003602368 -0.00015188541557 
0.00051234468274 -0.0013222603831 1.3125110483e-05 0.00020211123013 -0.00048834526696 -0.00017923926399 0.0002845391296 -0.00070229862189 -0.00022766618074 
6.2461129665e-05 0.00060696071843 2.7143645575e-05 -0.0014559263529 -0.00011849375796 -0.00080057359491 8.28984305e-05 -0.00041707681967 0.00081551208944 
0.00029289862495 -0.00078931594071 0.00066422954788 0.00055621438512 -0.0025300918535 -0.00093241398425 0.00097350467007 -0.0024607496999 -0.00059275504971 
0.00056592138149 -0.0010056429522 -0.00076387294356 0.00048339034397 -0.0011794127941 -0.00054962546922 0.00012492836833 -0.00030560267013 -8.3211957544e-06 
0.00019675113859 0.00020780434958 -0.0011985067062 -0.00016827860845 5.2094411568e-05 6.9098103075e-05 -0.00068582211964 -0.0010384368194 -0.00067778208194 
9.2575024493e-05 -0.00037986989137 -3.4100423393e-05 0.00026721269709 -0.00066738814007 0.00020159277902 -0.0002374679011 -0.00075439864969 -0.00014459803245 
2.714718742e-05 -0.00048737557974 0.0001160570921 0.0006924188288 -0.00015050286957 -0.00038322561999 7.8601269189e-05 -4.4483325176e-05 0.00029970562043 
0.00013461506847 -0.00042930301234 0.00069934003969 1.3399241755e-05 -0.00073250568603 -0.00035135706338 8.0523795705e-05 -0.00035658033447 0.00085462342692 
-4.8793081055e-05 -0.0015571093367 9.2757033232e-05 0.00012543073461 -0.00023570667641 -0.00063841017963 0.00029149341365 -0.00068374993319 0.00038555661948 
-5.7940596521e-05 -0.00027253592404 -0.00047906933097 0.00096548835562 -0.00063479438183 4.5404995618e-05 0.00025819994049 -0.00050348538783 -6.3681852208e-05 
0.00042290489843 -0.0016480698528 0.00065247888246 0.00030669268298 -0.0008168890869 0.00011858875821 0.0001057694075 -0.0010266933328 0.00020757518257 
0.00034520716325 -0.00095003848922 0.00013489541511 -1.2634230845e-06 -0.0004652671583 0.00025965087847 0.00028196678228 -0.00081031682265 1.733057559e-05 
0.00017496282377 -0.0005685022584 -0.0002653012353 8.206255528e-05 -0.0011179973207 0.00033774338343 0.00036839916002 -0.0012084383018 0.00020831975844 
0.00049302712742 -0.00094068217456 0.00032437924844 0.00047960413238 -0.00151507743 -0.0011926675239 -9.0911791853e-05 -0.00082755214125 -0.0002987031047 
-0.00019370333837 -0.00094516544103 0.0002124513404 8.3310704131e-05 -0.00070718727719 -0.00036059074219 3.8267124815e-06 -0.00089797003797 -7.4040846536e-06 
0.00033619523195 -0.00083875271758 -0.00015983948175 -0.00064590935952 -0.00064535782471 -3.3356159594e-05 5.3971631375e-05 -0.0010539783015 8.7718062983e-05 
0.00036694186304 -0.00052628603589 5.0634104766e-05 0.00017034258729 -0.0010075589328 -4.3200328176e-05 0.00048334511102 -0.00088697996377 -1.2941935929e-05 
0.00064985571837 -0.00078725287359 0.0002485159394 0.00059107921097 -0.00092929904671 0.00023691791315 0.00067055717729 -0.00058297968561 6.4348150126e-05 
0.00027873314012 -0.00097029994682 0.0006950027222 0.00048760772557 -0.00066078049459 -0.00010719026189 0.00026431664563 -0.00092974871794 1.2695439018e-05 
0.00051551838799 -0.0020433141943 0.00037867977944 0.00039571504199 -0.0011658327131 -3.6658360863e-05 0.00025405068306 -0.0011248155543 -8.1243001599e-05 
-0.00033445469832 -0.00075066999602 -1.5002193988e-05 0.00030329598462 -0.00075030216449 -0.00025078745107 0.00026537482518 -0.00076446404713 2.7734874589e-05 
0.00024753666389 -0.00053969429727 -2.3332900581e-06 0.00014522512185 -0.0009422106559 0.00025900781621 -3.1810983468e-05 -0.0010919754593 0.00036885208644 
0.00096625335588 -0.0011789219462 -9.020231755e-05 -2.5202839316e-05 -0.0006775807461 -0.00034145548017 0.00033325017431 -0.0010888231207 0.00066263293582 
-0.00011872805439 -0.00089841981425 -2.6960855479e-05 0.00053675068234 -0.0011330901869 0.00019506547979 0.00025419327161 -0.00088775672888 1.2259750944e-05 
-6.2040615884e-05 -0.0008972963552 0.0001555532084 0.00028109765725 -0.0007515385689 -1.3386837548e-05 0.0002292746788 -0.0010908509397 0.000199575068 
-0.00010232715628 -0.00091900436192 -2.169140648e-05 0.00062011133109 -0.00080479963355 5.1175384183e-05 0.00030217092227 -0.00083145466822 0.00015524938255 
0.00071492353849 -0.00085163713128 -1.2534772366e-07 -0.00014905894211 -0.0013337791461 0.00069570265035 0.0002543802677 -0.00077382743767 -0.0003552868215 
0.00035537875095 -0.00080729789662 1.1589059006e-05 3.4074877281e-05 -0.001080872332 0.00018413083447 0.00056825220778 -0.00069467722627 0.0011428776068 
0.00017317367344 -0.00066399823659 -5.4586877679e-06 0.0006729575101 -0.00078720078616 -1.5668029129e-05 0.00027600512311 -0.00070674967999 2.4067652686e-05 
0.00070958488938 -0.00071702125914 -0.00010740903376 0.00021700048711 -0.00068546958342 1.6230033387e-05 0.00028320351647 -0.0012535276631 0.00014698327352 
0.00017581146676 -0.0019562739394 0.00091993092415 -4.7541117118e-05 0.00026139397733 0.00035062418745 -5.1968911625e-05 0.00013797209104 -0.00014970647345 
9.8944643107e-05 -0.000214844859 0.00056790322561 -0.00063907156408 -0.00080785459716 -0.00036411516691 -6.9255781629e-05 0.00031008190533 0.00048017347649 
-5.1723402772e-06 7.4246236017e-05 0.00014813932774 -0.00026514111921 0.00041189420457 0.00031115035454 -0.0016974183815 -0.0015471624295 0.00030919779319 
0.00082088856189 -6.1232405125e-05 -0.00016926203313 0.00030987687886 -0.00082646521443 -3.3629646991e-05 0.00046645586323 -0.00099400893023 -5.0782509323e-05 
0.00012229011984 0.00084758170941 -0.0005196240423 0.00064600242271 -0.0002625369543 0.0010773242182 0.0011440534932 -0.00060292050172 0.00059123127548 
0.00049542157862 -0.00063020200098 -1.8991203522e-05 0.00026729782241 -0.0012504425635 -0.00014611426088 1.2069033608e-05 -0.00053345741471 9.1253123164e-05 
0.00036114443067 -0.00083175428868 -0.0008091638599 0.0007596339129 -0.00071673658207 0.00044578764366 -0.00044494141662 -0.00031302841574 0.00084400673181 
-0.00024773332492 -0.00048772236427 0.00015476230759 -0.00012643143394 -0.0010625110943 -9.6846296832e-05 -0.00024744659206 -0.00084226079214 -0.00037203167695 
0.00022628644561 -0.00048371275087 -0.00014638405083 0.00066305614063 -0.0012420164946 0.00027154284886 0.00034148336881 -0.0010337531098 3.7852901439e-05 
0.00053470047009 -0.00076632223086 0.00049266642559 0.00079433026572 -0.0018895864594 0.00026278526035 -0.00019020320339 -0.0006461192426 0.00015950567323 
-0.0011513879648 0.00099475374728 -0.00025191395416 0.00013113832687 -0.00030009504942 -0.00038522623684 0.00021541936121 -0.0010821805085 -4.5594787295e-05 
0.00024011371847 -0.0012010914278 0.00028698055218 -0.00037905252791 -0.00052259431444 -4.4070575145e-05 0.00040820103493 -0.00082942646024 8.7414751126e-05 
-0.00035388996321 9.443711476e-05 -4.8729056332e-05 -0.00018998843486 -0.00079704618575 0.00039497391878 0.00013406850241 -0.00057678722164 0.0005339853504 
0.00021501095148 -0.00082444156794 -0.00017553755644 0.00020942015841 -0.0010217051521 0.00022228160328 0.00029207072096 -0.001095376937 6.2485036292e-05 
6.446945671e-05 -0.0010603145908 -3.4363714617e-05 -1.8715896603e-05 -0.00087838869346 9.0482739183e-05 0.00020048114946 -0.00083198249702 -0.00011034009693 
0.00028164883574 -0.00069367279517 8.0526112793e-05 -1.8534273856e-05 -0.00054648097453 0.00014647606629 0.0004268710572 -0.0014963050939 -0.00025605888221 
0.00036010335164 -0.0012134497173 0.00045446195601 0.0005399251919 -0.00089535879798 -0.0003649559978 0.00015125473006 -0.00083632019208 0.00057548679293 
0.00047064454544 -0.00083803056502 0.00047042499544 0.00015126211856 -0.00072919600022 -0.0002766004721 0.00018594586899 -0.0009983485015 -3.0540084829e-05 
0.00017335221718 -0.00065406457075 2.1613422355e-05 0.00018338836699 -0.00098940985675 0.00010321773678 0.00011070687182 -0.0010174651796 -8.6203404522e-06 
0.00021516752918 -0.0012347179062 -1.7564651509e-05 0.00025886551585 -0.0014049421865 -3.6414633223e-05 8.3217705921e-05 -0.00099929035004 -3.6076436586e-05 
-0.00035509605196 -0.00082047823343 -6.7531652732e-05 -0.00018590310686 -0.00079596078559 0.00012627201844 0.00012526287432 -0.00083557379326 0.00022442463904 
0.00033725932432 -0.00091400779287 -6.4439883796e-05 0.00059041428413 -0.00071667905347 -5.1225398795e-05 0.00027343629888 -0.00095601220621 2.0938023179e-05 
-8.1700980658e-05 -0.0012580678905 0.00021410970505 0.0001865913235 -0.00084582020623 8.4848375301e-06 0.0002815023289 -0.001019428666 -7.1914050152e-05 
0.00013354235376 -0.00041471377736 -0.00010503729226 0.00018107372802 -0.0012573075408 -0.0007248780223 -0.00028805714719 -0.00074598821912 -5.173519759e-05 
0.00040437908183 -0.00066922391466 -1.567380191e-05 0.00060121926206 -0.0010529476221 -0.00019348984172 0.00045949323401 -0.0013109790173 -0.00022581572727 
0.00034146828505 -0.00080904845755 0.00018102003404 0.00049068025629 -0.00089921032812 -4.0959915382e-05 0.00039399883633 -0.00077033476484 -2.716132317e-05 
6.0724663608e-05 -0.001221765153 -3.7138247227e-05 -2.3726036204e-05 2.7505892358e-06 -0.00020321269827 -1.0939143719e-05 -0.00018954677388 0.00035967956629 
-1.489127904e-05 2.8906137364e-06 0.00029337295194 3.672628711e-05 5.8489252528e-05 -1.2462919595e-05 -0.00020604095018 0.00026571501985 0.00093445709931 
-0.00015761518626 -0.00050630301739 0.00010410844898 -0.00066243187115 -0.00012548413431 -0.00045867662179 -0.0010469790332 0.00028117760313 0.00051939082228 
0.0002272016026 -0.00082734761667 -0.00022945501717 -0.00019192694665 -0.00091989972412 -0.00016465263871 8.4988636128e-05 -9.7871497944e-05 7.7629610674e-06 
0.0027538479236 -0.00026924934957 3.0129336901e-05 -0.00091430087777 -0.0006665451342 0.00043367232733 -0.00053115214605 -0.00085335239154 -0.00098696989424 
0.00073703814123 -0.00052615098829 -6.7348645378e-05 0.00034857737173 -0.0010010666243 5.8869388924e-05 -9.3039306187e-06 -0.00076577916698 -1.1486808742e-05 
0.00087938829083 -0.0027690266971 0.00040875673483 0.0015467847996 0.00010529555715 0.0003387442944 0.00073500060914 -0.00045935418254 0.00068255757893 
0.00046921582328 -0.00024929754165 2.0476406053e-05 0.00012537078043 -0.00076199908196 0.00033062351619 -0.00030899641831 -0.00066366208482 -4.2022824051e-05 
0.00024685510154 -0.00068079976663 0.00023901634364 0.00013034087824 8.8099826697e-05 -0.00031762590112 0.00014539198224 -0.0019444511345 -0.00014166722678 
0.00022322765562 -0.0012897351107 -5.1123536925e-05 0.00044120482361 -0.00088828518233 2.7647150778e-06 -6.9384191734e-05 -0.00104434781 -0.00044817112387 
3.1607906164e-06 -0.00052406570197 0.000503295036 0.00087623857923 -0.00056045582492 0.00049410892679 -0.00080341011245 -0.0015963378958 -0.00030225139064 
0.00073229259512 -0.0011707492355 0.00035180504928 6.4647460493e-05 -0.0014181671833 0.00060745567625 0.00055550294267 -0.00253604579 -0.00093071436766 
-6.1857590668e-05 -0.0010360799797 0.00012423498815 2.5576717744e-05 -0.0010600942551 0.00019466753776 0.00076215809512 -0.0013880225071 -2.2766128686e-05 
-7.8644476242e-05 -0.0015015753162 0.00036598779597 0.00048072390324 -0.00084859922837 0.00019429096654 0.00017748392228 -0.00071650377082 -5.415884209e-05 
0.00020061558931 -0.0008856949319 0.00013362253498 -0.00059729478555 -0.0011066149008 -0.00090376288898 1.7406432797e-05 -0.00041552101704 9.0723248204e-05 
0.00063341652453 -0.0024680030763 0.00029712426278 0.00044952558333 -0.0016653358093 -0.0003639144072 0.00058092994638 -0.0012109011793 -4.5424519533e-06 
-0.00019121804308 -0.00087752314691 0.00049173366931 0.00024056396465 -0.0013353452416 4.004101138e-05 0.00011006624459 -0.00097995188411 0.00012014385409 
0.0009144269643 -0.00063293765301 0.00020018495508 0.00046293509674 -0.0006719410446 -5.2424950695e-05 0.00044971799192 -0.0011492312568 -5.8846759088e-05 
0.00033367235254 -0.00092996783361 -0.00018008230555 0.00040483683778 -0.0013027324763 -0.00013328676039 0.00091150827193 -0.0010582330421 -6.4486469216e-05 
6.4291616671e-05 -0.0012113565139 0.00040410268696 0.00020467865282 -0.0014906503302 -0.0012011039895 -8.4740909517e-05 -0.00060810232296 0.00018796053161 
0.00040136259268 -0.00065764059774 3.4555588473e-06 0.0002436061501 -0.0012952515741 -0.00064871335111 0.00015298107744 -0.001138809918 3.2339642021e-05 
-4.7601397421e-05 -0.00097633206557 -7.3716550992e-05 0.00079549056397 -0.0011720992581 -0.00011653933836 0.00042742950228 -0.00071011984331 -1.52122976e-05 
0.00023386000347 -0.00072859009003 -0.00038237535445 4.6515274207e-05 -0.001117719485 8.6790051536e-05 0.00017065127204 -0.0010173241164 -0.0002268661383 
-4.4329193669e-05 -0.0011347212406 -0.00021797427333 0.00016015436082 -0.0011198160061 0.00010174650409 0.00047929890312 -0.0011683843916 1.7232730803e-05 
9.8855301508e-05 -0.00089824815778 -2.3568921961e-05 -0.00024946068296 -0.0015617148592 -0.00039923866918 -4.6451654723e-05 -0.00086780976367 -0.00010687440724 
0.00037010866265 -0.001023679622 0.00021769686892 0.00042475438622 -0.00087565037691 0.00010192546346 9.5157909723e-05 -0.0011188637587 0.00018380454476 
0.00012559567059 -0.00053153537748 -1.8533452031e-05 0.00064430445123 -0.0012902479792 -2.1483805839e-05 0.00042962891632 -0.0012302140139 0.00050981469441 
0.00049507635991 -0.00076591054489 -4.1220363099e-05 0.00048408738428 -0.00099946848679 5.1860774849e-05 3.8029711713e-05 -0.00077774418285 0.00049319541571 
0.00024778371705 0.00011922061334 2.7433269098e-05 9.4750622236e-06 -0.00081636225168 0.00036078247869 6.0111920195e-05 -0.00011545086677 0.0013246012623 
-0.00051322985572 -0.00082970525645 0.0013767902472 0.00010963090382 -0.00021410293952 3.136117206e-05 0.00049673354821 0.00041599822195 0.00050599350724 
0.00036430806508 -0.00019156361718 0.001088702982 -0.00077254322572 -0.00059222690731 -0.00051287442004 0.00014083558143 0.001607206261 -0.00085436032873 
0.00048717593066 -0.00025533551861 0.001222633298 -0.00056373098456 0.00014653681067 -0.0008046270191 -0.0002563183342 -0.00059105632677 2.5441423772e-05 
0.0012589183343 6.3596292642e-05 -0.00030062821824 0.00043356772607 -0.00053976585671 2.9203756725e-05 0.00038545862361 -0.00023866099763 -5.2498713845e-05 
0.00079273197662 -0.00025869573671 0.00039295323236 0.00028917608775 -0.00073095261489 0.00082257615036 0.00064529724265 -0.00031948100492 -5.3372126072e-05 
6.1478420762e-05 -0.00023678045652 -7.5258010287e-06 0.0011501285159 -0.00096481106819 5.4700819517e-05 0.00071289959697 -0.00062053503794 0.00059043948525 
0.00068349871957 -0.00025459495898 -0.00010114612809 0.00029407163065 -0.00083669881946 0.00018834925624 -0.00030031990484 -0.00010313221717 0.00081518625418 
-0.00038416834429 0.00074518791536 -5.3820570163e-05 -0.00061602782215 -0.0016402358088 0.0011400298531 -0.00067318829767 -0.00018143487059 -9.5373534749e-05 
-0.00040901151966 -0.0029057469086 0.00083107257489 0.000461945215 -0.00037879079916 0.0014996634159 0.00052558180475 -0.00065891496074 0.001515508124 
0.0011616093954 -0.00027084027412 -0.00019488148317 -0.00075611444758 -0.00035999935038 0.0004971143784 -0.00055362678463 -0.00062252148944 -0.00013868905159 
0.00062363826175 -3.0533177174e-05 -0.00033339154369 6.2908594974e-05 -0.00015285405447 1.390937223e-05 -0.00013985498949 -0.00084136816247 5.6207872596e-05 
0.00017792129977 -0.00069589408726 0.00044718642947 0.00023456369667 -0.0015257712523 0.00023703816286 7.8832812752e-05 -0.00041058461378 0.00052802680808 
-0.00048958177678 -0.0019322755953 -3.0444478824e-05 -0.00017231187831 -0.00087430743566 1.5270078743e-05 -0.0006909389627 -0.001024720267 -0.00030507366323 
-0.00013519528146 -0.00071622464815 5.9656910569e-05 -0.0007223820217 -0.0011550107686 -0.000583940464 -3.0725455632e-05 -0.00095574677677 -0.00024551855782 
-1.3546218421e-05 -0.000882857577 -3.3950975195e-05 -0.00035894452661 -0.00066627326338 -0.00042409197901 0.00025549696848 -0.00090051741958 8.094936347e-05 
0.00035999743124 -0.0010214457476 -0.00016143675542 -9.8203669982e-05 -0.00089666459003 -0.00010271511743 0.00027482619832 -0.00065451830502 0.00070353427684 
-0.00042431921443 -0.0011794130904 3.3376911508e-07 0.00024498605035 -0.00065639722345 7.6438678063e-05 0.00053665686298 -0.0010419278627 6.9769755814e-05 
-0.00019277586213 -0.00064388804167 -0.00083618723064 0.00042760994071 -0.00099845446149 -8.4231899128e-06 0.00048301147684 -0.00089860695779 0.00017154576079 
0.00025646082176 -0.0011158457275 8.387540626e-06 -0.00055912554898 -0.00063223120236 0.0001664675701 0.00021816950768 -0.0011830090534 -4.5764759759e-05 
-0.00017713811746 -0.0010237537511 0.00035509541785 -0.00049531809157 -0.0010420685143 -8.6603225746e-06 0.00022499335341 -0.0012387722307 2.4316489584e-05 
0.00044745225658 -0.0012788481643 -0.00025599425909 0.00017737973102 -0.00074541846733 -2.6780763235e-05 0.00055889454539 -0.0011854498586 -3.1897478475e-05 
0.00019264782397 -0.00067954502576 -3.578407634e-05 -0.00062675126385 -0.001711220627 0.000224537 0.00045419278818 -0.0010031651322 -0.00012354734396 
0.00016524243036 -0.00056991117096 1.1310465365e-06 0.00018299082848 -0.0009719426829 -3.1422129506e-05 4.0347823083e-05 -0.0011660646639 -0.00011490525326 
0.00020395206096 -0.00091007738298 -3.315775355e-05 0.00081615715755 -0.00099743203688 2.1663943904e-05 0.00027061026158 -0.0011968111066 -0.00012587046246 
0.00027210813142 -0.0012290662037 1.9035691612e-05 0.00035194329561 -0.00075043150981 -6.45805884e-05 -0.00012362863292 -0.0013345550754 -0.00019028277928 
-0.00013757461914 -0.0010685212361 6.0155476322e-06 0.00022059187435 -0.0012133985025 -0.00014954512017 0.00050048921833 -0.00085311781954 0.00027268762797 
8.4072542844e-05 -0.0011739424523 4.0389330943e-05 0.00012948571658 -0.00065243268791 -0.00048800070606 4.7956941396e-06 -0.00090546988907 -9.7083545827e-05 