# vtk DataFile Version 4.1
vtk output
ASCII
DATASET UNSTRUCTURED_GRID
POINTS 1274 float
0.45468 0.695467 0.0379574 0.411541 0.791975 0.116363 0.416939 0.770257 0.26846 
0.438239 0.724756 0.105118 0.364928 0.898629 0.0323228 0.371406 0.89806 0.109176 
0.409961 0.796771 0.190741 0.392435 0.82934 0.267227 0.33233 0.994691 0.0589441 
0.339207 0.956525 0.124953 0.375482 0.870497 0.203285 0.369553 0.892468 0.265755 
0.300136 1.0551 0.0413873 0.270317 1.14656 0.0400504 0.316903 1.03487 0.127403 
0.328698 1.00726 0.201145 0.295769 1.07795 0.261442 0.240146 1.21848 0.0404732 
0.317918 1.1256 0.0954936 0.369226 1.0829 0.108984 0.253374 1.18773 0.121247 
0.323225 1.08154 0.184326 0.229007 1.23545 0.265017 0.272511 1.12256 0.209307 
0.186355 1.33318 0.0329573 0.249557 1.18002 0.192078 0.206024 1.30393 0.246082 
0.161999 1.39499 0.0365474 0.246058 1.32541 0.0871833 0.223612 1.25901 0.106077 
0.136749 1.46827 0.0382194 0.223816 1.23736 0.19851 0.204553 1.29238 0.170321 
0.109641 1.51633 0.0807679 0.24293 1.37646 0.0376529 0.189073 1.35848 0.129879 
0.28112 1.38448 0.111992 0.17581 1.35678 0.20848 0.25223 1.33092 0.1969 
0.0788359 1.59578 0.0332169 0.195448 1.43333 0.100145 0.219259 1.40098 0.18988 
0.148611 1.43249 0.194483 0.155371 1.41501 0.264784 0.14771 1.47925 0.13585 
0.198092 1.51064 0.0357551 0.146077 1.49548 0.239141 0.128403 1.53824 0.172499 
0.485905 0.599323 0.0309095 0.547972 0.450067 0.0729659 0.530979 0.515531 0.100206 
0.527501 0.516166 0.185045 0.507544 0.555379 0.260684 0.538721 0.491634 0.263425 
0.464063 0.656133 0.217566 0.442244 0.71927 0.232568 0.5911 0.521451 0.0358982 
0.495264 0.590908 0.157375 0.425934 0.765074 0.0469913 0.526282 0.656537 0.0380002 
0.47613 0.644611 0.0938322 0.499926 0.619507 0.268424 0.498035 0.760588 0.262766 
0.458855 0.681522 0.155569 0.461893 0.821386 0.0308601 0.391253 0.842735 0.065458 
0.437712 0.856512 0.114803 0.389448 0.933606 0.174733 0.505325 0.711892 0.0963533 
0.457066 0.821138 0.266342 0.385937 0.843571 0.148249 0.346322 0.944247 0.230657 
0.433552 0.871397 0.176332 0.492365 0.742337 0.169997 0.425157 0.948054 0.0900305 
0.456753 0.92438 0.148988 0.406289 0.996066 0.036373 0.445681 0.889133 0.042392 
0.430667 0.999962 0.137758 0.381258 1.01813 0.102701 0.324872 1.01801 0.269747 
0.421462 0.944211 0.260323 0.475379 0.795202 0.207048 0.487419 0.914179 0.229327 
0.412166 0.99288 0.207989 0.427688 0.871822 0.238174 0.372018 1.0692 0.0385906 
0.441307 1.05473 0.0353955 0.472346 0.955625 0.0326157 0.38704 1.04654 0.168164 
0.432591 1.0542 0.102102 0.380872 1.07731 0.257496 0.397488 1.00991 0.268933 
0.348364 1.1421 0.0373615 0.253549 1.28808 0.0325905 0.380067 1.20541 0.0331603 
0.320828 1.19334 0.0845599 0.322358 1.14929 0.159435 0.384997 1.15195 0.103626 
0.431942 1.12541 0.233707 0.335707 1.13937 0.244421 0.469155 1.17693 0.261149 
0.383696 1.14138 0.190056 0.318185 1.23986 0.0324237 0.292172 1.26873 0.0968173 
0.385479 1.21947 0.0948524 0.280517 1.26482 0.166135 0.322799 1.20843 0.206629 
0.367958 1.20357 0.264238 0.296328 1.23314 0.267486 0.418978 1.19 0.217887 
0.312225 1.32811 0.0399143 0.340437 1.29175 0.130073 0.338992 1.23165 0.144096 
0.273067 1.31306 0.268978 0.342005 1.39872 0.192605 0.375501 1.2779 0.267883 
0.320782 1.28317 0.227874 0.31451 1.36192 0.250706 0.313716 1.32776 0.176367 
0.239876 1.37518 0.256766 0.303318 1.41728 0.0357093 0.35428 1.36281 0.129677 
0.241063 1.44679 0.0475372 0.235306 1.49104 0.100567 0.250937 1.44092 0.146726 
0.219191 1.45141 0.253947 0.281325 1.3904 0.200281 0.275649 1.4638 0.208208 
0.290555 1.42803 0.266097 0.269058 1.52729 0.0362706 0.183604 1.53537 0.099848 
0.262517 1.51899 0.262534 0.208309 1.47525 0.185976 0.327435 1.48729 0.167774 
0.240636 1.54884 0.136506 0.583287 0.368364 0.146314 0.51554 0.530323 0.0318097 
0.600074 0.338576 0.0365139 0.592955 0.468909 0.213241 0.565159 0.423327 0.262679 
0.617988 0.337388 0.213354 0.603305 0.44333 0.102753 0.554047 0.585665 0.0363996 
0.511504 0.583974 0.0902828 0.495011 0.688328 0.265904 0.561087 0.649491 0.263168 
0.563315 0.430153 0.161425 0.558923 0.570895 0.21991 0.53345 0.642218 0.135806 
0.541369 0.733699 0.0374714 0.583434 0.62177 0.0930115 0.477996 0.80583 0.138866 
0.55473 0.707219 0.149744 0.533678 0.71456 0.21735 0.525865 0.631331 0.203218 
0.552823 0.805547 0.266295 0.5235 0.901695 0.0390986 0.507671 0.789926 0.0731482 
0.488588 0.892717 0.101377 0.501483 0.870901 0.166052 0.547391 0.880901 0.26823 
0.539995 0.79896 0.193279 0.602618 0.820601 0.226793 0.509437 0.842746 0.232779 
0.514423 0.943968 0.124844 0.546052 0.853317 0.110574 0.566282 0.966996 0.0390234 
0.491244 1.00118 0.117924 0.476478 0.980112 0.184443 0.468946 1.00537 0.261726 
0.543667 0.947257 0.265053 0.435215 1.05196 0.21937 0.557909 0.900356 0.203756 
0.527097 0.996845 0.225128 0.503212 1.01536 0.0362244 0.497956 1.06014 0.0909935 
0.484211 1.11196 0.0397092 0.429093 1.15651 0.0470997 0.48531 1.08165 0.260445 
0.525652 1.1435 0.265431 0.464636 1.04532 0.164967 0.429281 1.10256 0.171518 
0.453222 1.22185 0.0386358 0.452248 1.11959 0.108836 0.386355 1.25651 0.200369 
0.391062 1.19689 0.158074 0.462176 1.18675 0.157762 0.429542 1.22841 0.269167 
0.493972 1.12383 0.193436 0.37212 1.2861 0.0347812 0.405832 1.3439 0.0487402 
0.471188 1.29033 0.0597517 0.394646 1.28194 0.0984401 0.439029 1.329 0.105407 
0.435049 1.27805 0.150608 0.457846 1.25095 0.217447 0.368579 1.33499 0.21417 
0.370127 1.41916 0.0699925 0.429298 1.40803 0.0322908 0.421898 1.39105 0.111294 
0.414815 1.34693 0.1596 0.407163 1.33289 0.268497 0.352893 1.43308 0.139876 
0.34544 1.46964 0.240227 0.421493 1.39983 0.193728 0.438049 1.31805 0.211985 
0.382305 1.39951 0.258077 0.407641 1.4937 0.0344485 0.431815 1.45748 0.0999623 
0.305004 1.47307 0.0847346 0.366478 1.53589 0.22381 0.401942 1.4832 0.167562 
0.417572 1.45793 0.234786 0.619695 0.274884 0.0304327 0.645221 0.28913 0.0963355 
0.644506 0.219369 0.18044 0.622264 0.279606 0.260388 0.642555 0.284855 0.170872 
0.609025 0.413266 0.0388092 0.666935 0.499906 0.0422604 0.643951 0.40214 0.140918 
0.636256 0.442284 0.267349 0.569368 0.568077 0.145729 0.643381 0.374437 0.267413 
0.652017 0.502817 0.246233 0.585619 0.496423 0.151171 0.601965 0.659569 0.0347539 
0.617048 0.685389 0.0981969 0.617619 0.553718 0.088682 0.632513 0.635493 0.148442 
0.582381 0.660396 0.199357 0.648565 0.490783 0.122686 0.674194 0.636432 0.204293 
0.627468 0.572927 0.197153 0.551489 0.833096 0.0351575 0.61355 0.728043 0.0404789 
0.579924 0.773508 0.082087 0.539335 0.773944 0.133562 0.589468 0.810446 0.151466 
0.618411 0.878367 0.262178 0.600291 0.703221 0.25047 0.653791 0.778499 0.209191 
0.587964 0.754148 0.208301 0.618936 0.737203 0.146067 0.63208 0.697599 0.195834 
0.577003 0.923064 0.128711 0.606902 0.863805 0.0726827 0.634472 0.788792 0.112665 
0.66244 0.846289 0.11513 0.668152 0.848628 0.208886 0.608001 0.961839 0.268698 
0.612736 0.870969 0.152842 0.556314 1.01006 0.100305 0.559657 1.06279 0.0392267 
0.620405 0.97344 0.0833118 0.638989 0.917613 0.102422 0.62421 0.976188 0.15338 
0.581993 0.971979 0.209573 0.627344 0.918979 0.201774 0.567638 1.02809 0.265698 
0.528455 1.04667 0.180616 0.526953 1.1759 0.0372542 0.583052 1.16775 0.0876848 
0.592145 1.11426 0.117617 0.543666 1.11941 0.0786453 0.528189 1.09419 0.134502 
0.534559 1.15518 0.142566 0.545605 1.17501 0.207141 0.593225 1.05376 0.143423 
0.581056 1.11227 0.243138 0.594172 1.04759 0.209254 0.568531 1.11503 0.179375 
0.519204 1.32313 0.0301181 0.536715 1.24785 0.0583687 0.583796 1.30207 0.0394322 
0.492211 1.17215 0.0972127 0.489071 1.24597 0.11835 0.561911 1.21789 0.131395 
0.51726 1.23532 0.267973 0.511024 1.22786 0.187082 0.570373 1.23524 0.207011 
0.504234 1.31666 0.116079 0.478679 1.37435 0.156687 0.548658 1.38191 0.0438193 
0.478014 1.36646 0.0617429 0.491816 1.28982 0.18039 0.539921 1.28384 0.232603 
0.554099 1.36627 0.115329 0.505707 1.34647 0.222868 0.553422 1.30499 0.167288 
0.461661 1.39611 0.263608 0.486409 1.44079 0.0335601 0.552989 1.45566 0.0529606 
0.503322 1.41443 0.105818 0.482035 1.47531 0.211841 0.524247 1.43594 0.262216 
0.682011 0.232169 0.0351173 0.707491 0.287354 0.0599116 0.650148 0.214445 0.0944287 
0.709774 0.243141 0.104752 0.662076 0.191096 0.241692 0.678598 0.269945 0.229115 
0.682393 0.42041 0.0350725 0.72193 0.353351 0.0391972 0.733152 0.462462 0.0305957 
0.676674 0.354961 0.0962526 0.672918 0.344141 0.166412 0.699199 0.327263 0.256543 
0.712735 0.412634 0.16019 0.718685 0.432416 0.25365 0.659717 0.405006 0.210235 
0.655682 0.577668 0.036447 0.729008 0.534289 0.0463632 0.670905 0.554168 0.12116 
0.702741 0.453275 0.094189 0.672585 0.622034 0.0868934 0.720673 0.578772 0.0913079 
0.69623 0.594771 0.161886 0.719648 0.515632 0.260173 0.687011 0.523819 0.185587 
0.667994 0.593483 0.260498 0.669479 0.731518 0.0860046 0.672882 0.674709 0.0378139 
0.732011 0.705396 0.0569958 0.689801 0.675217 0.125016 0.747622 0.638578 0.163636 
0.652674 0.669395 0.266623 0.754852 0.710568 0.259801 0.733338 0.63646 0.249858 
0.695485 0.699293 0.219776 0.696112 0.757741 0.263653 0.636741 0.798285 0.0437897 
0.666414 0.861787 0.0348703 0.688414 0.739466 0.15784 0.714435 0.795817 0.11374 
0.652102 0.814927 0.267326 0.719844 0.788989 0.201576 0.716571 0.824238 0.267486 
0.632494 0.914658 0.0313795 0.691365 0.961252 0.124329 0.712257 0.914553 0.0384303 
0.664726 0.967789 0.0389344 0.710983 0.886699 0.101946 0.699016 0.895426 0.258425 
0.6393 1.00302 0.22661 0.674739 0.900845 0.154108 0.68282 0.955296 0.190509 
0.669849 0.963068 0.268049 0.622923 1.11015 0.0399708 0.671671 1.03858 0.0346308 
0.629606 1.03648 0.0876118 0.655715 1.11343 0.108011 0.685462 1.01968 0.166846 
0.693867 1.0744 0.236072 0.704253 1.0019 0.229066 0.626332 1.06398 0.265482 
0.639328 1.0814 0.183351 0.636483 1.12864 0.268899 0.641691 1.18684 0.0513359 
0.619137 1.23623 0.0953821 0.660883 1.18833 0.123295 0.61106 1.17124 0.219451 
0.609972 1.16055 0.15609 0.667516 1.14434 0.174121 0.625085 1.24134 0.166817 
0.576955 1.20934 0.267297 0.693703 1.15062 0.240117 0.617464 1.30324 0.134616 
[...]
POINT_DATA 1274
FIELD FieldData 10
VELOCITY 3 1274 double
1.3142009887 -3.1904833108 0.00010289670734 0.89941782912 -2.2084828294 -0.327943742 1.2902134469 -3.099117237 -0.0037029653712 
1.0956986116 -2.6009589491 0.29006684778 1.0288303244 -2.498205754 0.00088311370839 1.0052124794 -2.3616290121 -0.055436962164 
1.1149210069 -2.7076654245 -0.059567961589 1.3103648961 -3.2004378278 0.040993638376 0.80323117767 -1.9958464365 0.15515003758 
1.1681737098 -2.8369934231 0.1591181897 1.2508624664 -2.9648256844 0.074020110563 1.2350202198 -3.0081999499 -0.00086244390319 
0.93591835814 -2.0561414851 -0.31550199944 0.93415353871 -2.2686586963 0.019511615612 1.0541449988 -2.5598110468 0.23112231061 
0.97110971696 -3.0384767362 0.037052168756 1.1358440066 -2.7570862622 0.025243571434 0.9339641208 -2.2681991844 0.020637462419 
1.2425848711 -3.3786740166 -0.060228673005 1.6356796172 -3.2334192559 0.078972468229 1.1405734023 -2.7699639817 0.0099902291419 
1.1601928804 -2.859930876 0.46570893066 1.0011711024 -2.4350164956 -0.019353281454 1.1313740291 -2.7462247084 0.067212317 
0.76098535576 -1.8481073759 0.0086040429315 1.1257489888 -2.763921958 0.007019265309 1.0044628653 -2.4395551788 0.10617609018 
0.75967279425 -1.8449197264 0.071009063496 1.2572978224 -2.6806911408 0.31361279961 1.1567329549 -2.8092099098 -0.23205129488 
0.77643372466 -1.8856248741 1.7726464788e-07 1.1310773314 -2.7469033558 -0.11943169315 1.1368852788 -2.7610209451 -0.15456502256 
0.80595439658 -1.9573179085 0.10142618016 1.1394427685 -3.1345961888 0.0113999318 1.0842025691 -2.6333047731 0.045985216045 
1.2988709541 -2.5942489438 0.096238634714 1.0124924688 -2.4857956291 0.041342999163 1.2805348413 -3.0464618553 -0.008977237997 
0.67573842154 -1.6410790977 -0.003916744686 1.1900947733 -2.7380165482 -0.19309758233 1.4957157555 -3.0122037968 0.015775723733 
1.2597592324 -3.0594154167 -0.38131042011 0.98886335209 -2.4015253919 -0.0046612756932 0.79855908346 -3.0179575669 -0.30131770715 
1.2885013353 -2.4865745888 0.0052856659337 0.84471305726 -3.3653049926 0.28048419452 0.3421394954 -3.3007672451 0.12587208964 
0.87285903676 -2.1829360138 0.04050205461 1.3198081372 -3.2112922671 -0.2970221575 1.4744974291 -3.5676735423 -0.60118418157 
1.2944224702 -3.0985431576 0.075855002963 1.3733876034 -3.3669673464 0.5909537894 1.5181476162 -3.4963441708 -3.4198383525e-05 
1.3004767466 -3.1341651624 -0.13060165898 1.0575044357 -2.54292329 -0.76744722894 1.187237687 -3.9123149045 0.0020516870161 
1.417607727 -3.518187819 0.33476373818 1.2976441435 -3.1249443171 -0.13755316559 1.4413423409 -3.8730330862 -0.29684909246 
1.4103272902 -3.4407342091 -0.23208529363 0.98435525377 -3.3554924787 -0.0016995662223 1.3796651397 -3.5788245207 -5.7555103363e-07 
1.442580137 -3.4380924213 -0.24295950788 2.2434338121 -3.6335483119 0.028304740456 1.4234131479 -3.0881720231 0.9802671234 
1.3949044052 -2.9921721011 0.1389733836 1.3711306436 -2.9852445262 0.23048666374 0.93774278912 -3.2433676823 -0.12786686544 
1.4503779776 -3.2003678365 -0.10927499963 1.0325691678 -2.4752279216 -0.21412905117 1.212377112 -2.934892495 0.11716331517 
1.1157274768 -3.1455532629 0.31972563144 1.1091283571 -3.4106173604 0.046465320897 1.6269645009 -3.0403732533 -0.08900818981 
1.4201654982 -3.5331882234 -0.17818408064 0.98352855452 -3.1930551275 0.001192285576 1.8674912416 -3.7063865397 0.35344490039 
1.0093224516 -3.2151686847 0.16462725955 1.0724224453 -2.7953653318 0.27734723109 0.96819160779 -2.4840163718 -0.021449379151 
1.4177891293 -3.1441572543 0.07422809633 1.021910065 -3.6492174362 0.33470803408 0.9326392006 -3.8026751856 -0.36258047317 
1.1845453998 -2.9870335157 0.38931073426 1.2178565201 -2.9264162831 0.32885527737 1.1179315394 -2.8677040833 0.017314583517 
1.0709817796 -3.2436229417 0.098914684622 0.63081393399 -3.0705471257 0.018771269876 1.1788081067 -3.1295993112 0.28362886283 
1.4300926353 -3.2332415093 0.28994586427 1.3612582943 -3.2794481681 0.092298242797 1.3180608708 -3.2981511741 -0.0056948206729 
1.046606029 -2.9999028042 0.024734522889 0.82222590598 -2.2490197384 1.8892683628e-07 1.0685747565 -2.918490449 -0.038109568373 
0.94148369163 -3.1083816034 0.15382287756 1.2788210208 -3.1464750269 -0.13464077942 1.2941070575 -3.1584723776 -0.037041327263 
1.376431652 -3.2415120673 0.073228073366 1.6540125336 -3.0934962195 -0.042659369054 0.97636862105 -3.1752829082 -0.26237455522 
1.3147774427 -3.1567812486 -0.020807806914 0.65668365242 -3.4473249011 -0.078768685515 1.3094685091 -2.8919114453 -0.14258901061 
1.0290766389 -3.1378906537 0.02722688391 1.1847247575 -3.2431039859 -0.1793899847 1.0625151766 -3.2254562258 -0.015958149778 
1.1069129754 -2.7087700343 -0.0045702624689 0.9930915569 -3.0981606095 -0.00010114519021 1.1716172208 -3.2586035332 0.17466375455 
1.3490420883 -2.9231752765 0.12275634598 0.79745651122 -3.4277813527 0.12840961264 1.2000239297 -3.4803667994 -0.066642769859 
1.0538099218 -2.9451753963 0.027512854132 1.5933331674 -2.7279832274 -0.47151053949 1.0724777552 -2.8973999762 -0.00023934466006 
1.0722384911 -3.1920021842 -0.058292272159 1.0045295011 -2.9425907951 -0.10887578897 1.2207793057 -3.1784101665 -0.18930912075 
1.578309481 -2.6821624426 -0.045248172868 0.89328227723 -3.1845291539 6.6386376234e-05 1.1948216624 -3.4267064067 -0.42055801982 
0.92175039874 -3.1230140771 0.0016667577021 0.83880347958 -2.4810250567 -0.29988531798 1.1677622981 -2.6154054154 0.032400808462 
1.1766715962 -2.7768350589 -0.022907890833 1.6132932607 -2.8997595459 -0.4882936342 0.91583294872 -2.9730985008 0.48178241067 
1.4576584068 -2.5651643618 -0.0025530150632 1.3644020212 -2.6053766558 3.0903736236e-06 0.78497796764 -2.5199676556 -0.025214003597 
1.0132005 -2.4048745868 -0.00027686393285 0.79091750474 -2.9760812153 -0.034434310234 0.71099291896 -3.4310363305 0.074879376067 
0.43532620982 -2.6595446603 0.13173045625 1.166313189 -3.3658792721 -0.26096587357 1.0391131981 -2.5487697506 -0.50597850222 
1.6855682694 -4.0924170053 0.00027014838391 1.3515466914 -4.394759335 -0.025929267234 1.4541813235 -3.5315833735 -0.01165301982 
0.92988695123 -5.0438466573 0.21607222482 0.97829443868 -4.6315546077 0.34368183671 2.125676121 -3.3500948824 -0.21654781239 
1.2202835909 -3.5586655177 -0.080623988339 0.62778622066 -2.570903763 -0.049181348096 0.94715114688 -3.3151677168 -0.014572357364 
1.2550155532 -3.2457737135 0.41496732949 1.4917218298 -3.7586168992 0.59426454453 1.3106169594 -3.7031365716 -0.27209195989 
1.179101883 -3.3195950076 -0.017944174788 1.6047232829 -3.8459601163 0.1965128142 0.92690205652 -3.2177325595 0.14083656917 
0.99842584203 -3.6283096861 -0.19875784673 1.2393643573 -3.5128864455 -0.11547069774 1.3456448021 -3.6181197484 0.44432114353 
1.2127383758 -3.3439664152 -5.6063435911e-05 1.4163696399 -3.6224866054 0.031822878753 0.93818393179 -3.6273406383 0.24160174558 
1.3598990683 -3.3450331374 -0.19695763271 1.065682384 -3.1853169384 -0.048868082664 1.0770661434 -3.8499678791 -0.0046339021177 
1.2997909939 -3.6735977086 0.19705849239 1.1033329009 -3.8824539964 -0.34204406376 1.4011363879 -3.4591587831 -0.36716413533 
1.4460556995 -3.4735372295 0.0052082766888 1.0525018051 -4.0948190823 0.0066395138648 1.4990165203 -3.6767161351 -2.581963019e-05 
1.0101212503 -3.5781878722 0.15492101366 1.1113282494 -3.5164572627 -0.021727551004 1.2627503365 -2.9829600968 -0.02280685021 
0.74523056984 -3.8635747757 0.073440996489 1.4674603755 -3.0088681846 0.052630319752 1.1855751512 -3.557271282 0.093805331156 
1.1883741062 -3.748023086 0.0022344545035 0.34018234647 -2.8288805767 0.21421927438 0.86684568953 -3.9528323184 -0.51427525131 
0.98141312457 -3.3215808139 0.0038634444826 1.0931340157 -3.1567702557 -0.052901304985 1.5715131072 -3.0529874345 -0.0079119539869 
1.2239629342 -2.8175679099 -0.032714095143 1.2755907113 -3.2561414636 -0.025189221083 1.3093863683 -3.2118193234 0.059980749724 
1.2246118163 -3.1824327192 -0.001849874682 1.3601221366 -3.1885467153 0.19068429781 1.0522326445 -3.2118027841 0.088803780497 
1.2324816799 -3.3945129249 0.13082879654 1.0949183654 -3.9739507437 -0.096509192596 1.1256494181 -2.7535792098 -0.011791792339 
1.3715951651 -3.7866179011 0.026758488328 0.84117345125 -3.5050775491 0.0092036661507 0.78546593781 -3.47089752 0.010239939969 
1.0362602841 -3.2392190327 0.26117781039 0.82737829217 -3.1029898364 0.070659639274 1.0082263777 -3.1962512689 0.10607726863 
1.0460481067 -3.6661703686 -0.13933970157 1.0953334667 -3.6351131452 -0.42413773946 1.1241272082 -2.9802684909 0.031317933479 
1.0556839777 -3.436792306 0.092128604097 0.99220628468 -3.6069870555 0.00012683509626 1.1491594585 -3.1709715047 0.33027464397 
0.9709613848 -3.4206395569 0.169030438 0.94235551646 -2.8195176135 -0.01323943553 0.56938517257 -3.4436369622 0.14313554783 
1.3815278761 -2.496308978 -0.057815104352 0.97923464741 -3.2393392371 -0.096176619589 0.84499691321 -3.8155053078 0.039257189321 
0.9279123901 -2.8290396753 -0.040219256859 1.3931195343 -3.2505277651 0.003301030908 1.1347183272 -3.1834389345 0.19436742897 
0.67349966804 -3.3925901961 0.26830917098 1.0995237599 -2.3919242083 -0.078924473619 0.82162390179 -3.4905188714 -0.1897865373 
1.4444044687 -3.0596962468 -0.032979164598 1.6873691896 -4.0978799547 -0.013365808487 1.556003789 -4.2931624734 0.18137067745 
2.0171254821 -4.8877118272 -0.08281026994 1.6127916939 -4.038498368 0.45944061735 1.313823095 -4.8514686511 0.16998142796 
1.0031253036 -4.01009094 0.032050385448 0.99612139762 -4.5381184782 -0.13509078617 2.2451527909 -4.0526049851 -0.1459579348 
1.8728426552 -4.4482624937 -0.0015171554929 1.0499224835 -3.9549888889 0.24085412729 0.91973315526 -4.7028314129 -0.0019348795368 
1.0886459215 -4.0168768526 0.52767597825 1.0964373571 -4.0883689718 0.19377225071 1.1030548157 -4.0113725366 -0.025083489011 
1.071729015 -4.2884998873 -0.22574001582 1.0894966274 -4.1538336491 0.20337868583 1.5692853037 -3.8213034402 0.13816313804 
1.5899066569 -4.160489843 0.047771427411 1.1023995359 -4.5499865342 0.24264490635 1.8100375958 -4.074012781 -0.20632987188 
1.3387675148 -4.094268178 0.090473277732 0.95671662157 -3.8219348123 0.013438498308 1.0985028101 -4.0995716453 0.64831553524 
1.3111902398 -3.8923299528 0.32929365824 1.2109966497 -3.4364345604 0.12614988271 1.4237080868 -4.2823779971 -0.018467478254 
0.70233833472 -4.0775846139 -0.016518338782 1.1745146514 -3.5341225853 -0.27418984639 1.5453802569 -4.0493116508 -0.082509149421 
1.4083596684 -3.7063245805 -0.16051490897 1.4869956049 -4.5973602819 0.17403879979 1.5829136317 -4.0895300239 0.36440554425 
1.2901065564 -4.1169947855 -0.12377082544 1.0885655482 -4.0780201072 0.056481827431 1.2215488989 -4.6481496377 -0.11203415312 
0.90301773851 -4.4552417129 0.18172548552 1.42973753 -4.0182155369 -0.12233311906 0.64645221707 -3.380110318 -0.0010566255527 
1.0685132516 -4.1909224541 0.069044852826 1.0900672318 -4.0706977198 0.20584137857 0.9491543876 -3.2894752604 -0.040681559876 
1.5443217584 -4.1144415895 0.11552537886 1.2204743458 -3.9763666882 -0.23026678161 0.96496250309 -4.3718444173 0.061549578859 
1.0206763752 -4.2469125386 -0.073314132676 1.3127632961 -3.9776406747 0.10202928854 1.0342500736 -3.468497676 -0.014135736696 
1.3199749512 -3.7358696597 -0.071086184534 1.1946667129 -3.4493719936 0.0078246573077 1.4296495272 -3.7555219481 -0.20467575905 
1.1542299523 -3.838804794 -0.20408187778 1.1292766889 -3.1728174399 -0.094640647293 0.77881923732 -4.0082741158 -0.4037797081 
1.1379902674 -3.9998324292 -0.51930394036 1.321497285 -3.5494073865 -0.41036092271 1.1128201555 -3.8006759245 -0.087122253806 
0.75131862337 -3.9788190519 -0.029028601147 1.1673146341 -3.8209379682 -0.080891292662 0.50816506122 -4.2678456657 -0.0089295548019 
1.076556658 -3.5617471701 -0.0056570385292 1.0868170902 -3.4966973242 0.1831179171 1.1610499453 -3.7355188575 -0.3244688474 
1.3091450572 -3.1542210789 -0.29888380941 0.9213173541 -3.9415743001 -0.17818273417 0.94444581236 -3.8676691473 -0.29117248465 
0.50937171584 -3.7525820302 -0.0065308270884 1.0866794862 -3.7035211384 -0.43132399067 0.99824265673 -3.5556393092 -0.10337600789 
0.92787602269 -3.9274223305 -0.00036552170738 1.0688382491 -3.7047012235 0.018469173214 1.120758717 -3.5618466563 -0.03273910161 
1.0680943715 -3.478543776 -0.089921908349 1.0110540411 -3.5759560267 -0.4508522458 0.69926870712 -3.775630939 0.03850208433 
1.0487095114 -4.0289096308 -0.02844099269 0.80570059658 -3.6768482196 0.14084389368 1.2084805214 -3.952585549 0.0049958395427 
1.1118114506 -3.6478629437 -3.8319388544e-07 1.0719052191 -3.7750633257 0.00017298291202 1.0232803363 -3.5569648151 -0.014876380535 
1.1615610145 -3.6872515746 0.094691549337 1.5068090465 -3.4820647782 -0.40827073641 1.0531863268 -3.5495385961 -9.5325176117e-06 
1.2119324647 -5.1658158226 -0.13592076916 1.4038627973 -5.147589286 -0.38325459568 1.6840225546 -4.3472174751 -0.39419455793 
2.1278512408 -5.0449163473 -0.2129551889 1.5447022565 -3.3491083106 0.8235269419 1.3823005924 -5.4801587416 0.27566214964 
1.0472084303 -4.4053273982 0.027398396475 0.62806105672 -4.838329611 0.0010599746652 1.0107952688 -4.720816234 -0.032103297056 
1.1822145635 -4.1099034547 0.4660127865 0.86629309639 -4.640888458 0.12082018875 0.8464759527 -5.3645681179 0.47490774863 
2.2757169097 -4.3347052758 0.34001258181 1.0879144025 -5.1154124797 0.38953444371 1.2040308908 -4.866993655 0.15360972082 
1.1444658349 -4.4259290934 0.010264543926 1.0925255517 -4.6414097321 -0.093127331421 1.2745478956 -4.6087056972 -0.080963776663 
0.83427147891 -5.1993918476 0.54648962466 1.6229934882 -4.5158959215 -0.028485835314 1.5400315251 -4.5937345372 0.34395838515 
1.2382062643 -4.8112080945 0.16075518438 0.4688762372 -5.0231395285 0.28489663189 0.85851231381 -4.6853129722 0.085573275807 
1.1305252887 -3.5232152881 0.034142211792 1.1671148379 -4.2786819921 0.1428568559 1.1264569483 -4.19352848 -0.0021957351823 
1.350669771 -4.6465614094 0.018517159269 1.71656842 -4.430985094 -0.15510437214 1.300197858 -4.8832991063 0.29352119771 
0.77121232826 -4.1194840471 -0.0017786067498 1.4359358977 -4.6536054599 0.74466000051 1.2265099766 -3.7183756041 -0.086860289481 
1.4944136027 -4.2260812132 0.58794603238 1.6284082396 -3.7113050773 -0.0045630981286 1.0750435545 -4.0630155805 -0.051561952737 
0.89991876273 -4.0605399499 -0.55115626353 1.4572133009 -4.6626451624 0.3075542411 1.0408115539 -4.5450340236 0.21282359264 
0.84523897601 -4.0236055079 -0.027759287651 0.82656609472 -4.4988360365 0.22749493387 0.94155124463 -4.5650603032 -0.0026546341565 
0.96114190026 -3.9862664268 -4.5735406088e-05 0.90898855816 -4.3650656875 0.06330488453 0.86000016214 -4.0639626369 -0.016096493944 
1.2523562414 -4.1639553588 0.011057731957 0.85972791632 -4.4922080038 -0.20861212776 0.80138100085 -4.6024067841 0.8670239413 
1.250265447 -3.8776210328 -0.38652675513 1.0065987515 -4.2126255798 -0.10114135062 1.6130148483 -4.2913061342 0.21480448953 
0.80990911386 -4.0947566155 -0.19406869187 1.4246540983 -3.7373880412 0.024437634664 0.93461690804 -5.1133162358 0.0083822513065 
1.0050933788 -4.0617928485 0.16666766514 0.76365449669 -4.4779695031 -0.43106215319 0.90495952998 -4.2662405587 0.15618139374 
1.4464520144 -4.6777567339 0.17884099654 1.2738633626 -4.2006026597 -0.51571432721 1.2558385541 -3.8155133456 0.073995279818 
0.88304597424 -4.0934903679 0.58714050459 0.73708804362 -3.7093911812 -0.030600119312 1.0074798336 -3.549052002 0.091293192297 
0.70309473501 -3.6295946941 0.083802923395 0.87458937626 -4.4833375892 -0.097542685697 1.1802140146 -3.8429791673 0.076369339665 
0.59242244577 -3.8435127882 0.078241314164 0.45783186679 -4.3020721082 0.12246184994 0.94879712869 -4.0148523857 -0.19662450669 
0.2804443192 -4.3176420073 -0.00010787058262 1.2014258631 -4.6755578994 0.18121254219 1.4567454936 -3.7455129395 0.057703880393 
0.69818850492 -4.1529651139 -0.35849737225 1.1135797236 -3.6490451771 0.060655312587 0.77375185637 -4.3624347293 -0.11436759323 
0.67978267311 -4.2682719922 -0.1320069115 1.3876742622 -3.3697041049 -0.12501850718 0.56520217487 -4.7537895127 0.076654495793 
0.85727902083 -4.5897310923 0.31097555859 1.3529012084 -4.2693648351 0.16798079354 0.74522442579 -4.2874901784 -0.010692722273 
1.6158886318 -4.3008016994 -0.23809848328 0.9449016841 -3.5879892784 -0.015782990347 0.58039437134 -4.2715424063 -0.0006794021868 
1.1390941772 -3.6394117212 0.14204712571 0.8622308741 -3.7233489705 0.18652869735 1.0142393654 -4.1311447517 0.062418019488 
0.98693315409 -4.1778962584 0.20446446995 0.96294448216 -4.1644141409 0.071016970794 0.96781880467 -3.9976733927 0.24761758779 
0.75154362582 -5.6082512672 -0.097283556725 0.66475575928 -5.5515870423 -0.076848433713 1.2868941051 -5.4203762123 0.042463082238 
1.2739239143 -5.7112700404 0.64262002402 1.7379727663 -5.2350986668 -0.016343020171 0.85136426568 -5.6125645959 -0.058125009696 
0.81158129513 -5.8641190568 -0.044832334705 0.53877068824 -5.3486827301 3.515143251e-05 0.81402273289 -5.410071556 0.51937294279 
0.57097394786 -5.3385966875 -0.20383283988 0.59910565334 -5.6808424162 0.096947790873 0.7632288241 -5.5794906092 0.046526673133 
1.6434976595 -5.6697639078 0.029732505546 0.7399027038 -5.3916638931 0.20203995749 0.6099208542 -5.2293413598 0.37811989753 
0.78737912188 -5.414479066 0.21713255263 1.2323286423 -4.999124117 0.0042781747064 0.89943145422 -5.3152813565 -0.0090876715598 
1.1019117842 -4.7251768641 0.14054796088 0.55707515772 -5.150071432 -0.25428158885 0.99906978708 -5.1156773225 0.21472442748 
0.99985556718 -4.3071058884 -0.30311426599 0.24290531027 -5.2550502752 -0.13824017054 0.74843489224 -5.6299902447 0.31486491137 
0.74340030912 -4.6154637464 0.059844754176 1.3661896222 -4.9883358922 0.12156457294 1.2209553077 -4.8221405042 0.0028051468922 
0.85060973155 -4.5874430604 0.02900011388 1.6952565402 -4.922330305 0.29306200078 1.3484283329 -4.2109814713 -0.063892254289 
1.45596281 -4.2615931752 0.010206682942 0.40282468929 -5.2929165882 0.061044383412 0.93628667688 -5.0131952963 0.5396159336 
1.0769675865 -4.3734247349 0.0070893401781 0.22273427676 -5.2319041093 0.02438760173 1.087104831 -5.0062670543 0.51773722794 
1.3393439146 -4.8762785063 0.80818229499 1.2235413499 -4.6267952322 0.57484119062 1.295028073 -4.1632647029 0.55682442096 
0.98533833098 -4.760186714 0.28076538384 0.51208258636 -4.9648623956 0.29928697189 1.0444434896 -4.2449687096 0.27338517948 
0.95512862408 -4.5366590109 -0.21431159912 0.79577652436 -4.5929537059 0.0049444778986 1.125158886 -4.6127203373 0.023202519165 
1.2317537155 -5.0196228509 0.057167290986 1.6372587143 -4.3753162486 0.098369525898 1.1116105446 -4.6973709796 0.39773999769 
0.80535276441 -4.3591946183 -0.001040681456 1.0097739886 -4.819803383 0.20313910697 1.3068695805 -4.4390776004 0.005989542792 
1.0548138692 -4.4489103172 0.13353245081 0.37170923721 -4.0844316354 -0.18185361211 0.63114643237 -4.1955079989 0.013096256933 
0.90077111228 -4.4469513669 0.011317262958 1.3193612304 -4.1752847559 -0.4994299091 0.94257920239 -4.3360811192 0.38128841374 
1.5065708739 -4.2596160684 0.21665010334 1.0601296308 -4.1019943327 -0.097875040763 0.68789732389 -4.7358536129 0.25007544955 
0.58248922936 -4.2320443999 -0.16518918276 0.82643067016 -5.0532334798 0.12724242501 1.122180863 -4.4754583201 0.17402986746 
0.7904285988 -4.7988708295 0.58927638729 0.67244527913 -4.3279210049 0.083709476623 0.76938673016 -4.3643407828 -0.047150563805 
0.56064880611 -3.7865743402 -0.35496445668 0.46307412354 -3.7833757884 -0.16683372176 0.74444569594 -4.4314577774 -0.39180476779 
0.29830712106 -4.7692851905 -0.020729679203 0.50708392228 -4.8635284228 0.48592462244 0.71710449662 -4.4186547567 -0.2236150432 
0.74702105418 -4.5669752689 0.00074251016603 0.97062787835 -4.1180364504 -0.0072691832029 0.91892860016 -4.4522048329 -0.16112852544 
0.68723836842 -4.9987408204 0.46192999927 0.67096220001 -4.3595269788 -0.045653432025 0.66802153397 -4.4400957616 0.17756744312 
0.79605021132 -5.9096545091 0.0003038681273 0.25532620223 -5.7462108355 -0.26143487041 0.51607636081 -5.7505905605 -0.15885055731 