# vtk DataFile Version 4.1
vtk output
ASCII
DATASET UNSTRUCTURED_GRID
POINTS 1274 float
0.513744 0.552016 0.0379539 0.46995 0.650136 0.10513 0.488846 0.595646 0.268458 
0.495181 0.586541 0.0982281 0.424154 0.754785 0.0323157 0.424732 0.767777 0.120115 
0.475883 0.636657 0.212845 0.459493 0.668963 0.268648 0.394576 0.843533 0.0586812 
0.398747 0.811925 0.165408 0.446655 0.697524 0.214341 0.433432 0.737298 0.265757 
0.363501 0.901177 0.0319695 0.34443 0.966562 0.0527236 0.38171 0.877476 0.146358 
0.395369 0.84303 0.231737 0.345904 0.956198 0.260062 0.314761 1.03727 0.0387204 
0.391575 0.912313 0.086388 0.448839 0.898112 0.110119 0.332866 0.994662 0.130193 
0.409076 0.913897 0.218454 0.310688 1.03707 0.265121 0.352379 0.928593 0.187561 
0.282327 1.10011 0.0484239 0.328445 0.986673 0.200955 0.286873 1.10758 0.260298 
0.258534 1.16054 0.0336642 0.357813 1.11421 0.102855 0.302309 1.06787 0.109052 
0.289897 1.24954 0.0382188 0.303296 1.04434 0.200258 0.284029 1.09937 0.172097 
0.333795 1.25388 0.0921459 0.386244 1.15608 0.0381065 0.276034 1.14729 0.110125 
0.422179 1.14849 0.105982 0.261169 1.14938 0.208223 0.340227 1.10573 0.211146 
0.2189 1.25562 0.0332147 0.320931 1.18398 0.0538747 0.319943 1.15567 0.173593 
0.245177 1.19797 0.164318 0.28734 1.1823 0.26484 0.239558 1.22094 0.0932341 
0.373125 1.22956 0.0356631 0.236756 1.22972 0.236175 0.216176 1.25555 0.14914 
0.540388 0.470848 0.0302089 0.611491 0.295751 0.0936923 0.595709 0.35831 0.122754 
0.597223 0.346866 0.198919 0.576525 0.38783 0.2665 0.61115 0.311836 0.262146 
0.541258 0.468647 0.209689 0.509348 0.556297 0.218167 0.603602 0.328393 0.0358989 
0.566505 0.417913 0.159116 0.484084 0.623855 0.0378761 0.607638 0.473228 0.0455521 
0.546187 0.474487 0.098511 0.549971 0.447171 0.268472 0.565216 0.570554 0.262773 
0.527776 0.511584 0.159798 0.551373 0.667713 0.0308606 0.44568 0.710765 0.0791488 
0.517696 0.697076 0.107019 0.472143 0.752258 0.178422 0.551827 0.54755 0.102404 
0.522977 0.656836 0.266704 0.446505 0.69656 0.145177 0.415484 0.776275 0.214659 
0.501034 0.679693 0.16917 0.555348 0.576431 0.168047 0.494457 0.778762 0.0923193 
0.536056 0.759349 0.146427 0.459693 0.81342 0.0363728 0.508551 0.72314 0.039754 
0.48479 0.81669 0.150793 0.437578 0.834909 0.112852 0.3651 0.892828 0.269731 
0.49978 0.768402 0.260788 0.538873 0.616254 0.218994 0.563672 0.746601 0.220138 
0.468283 0.814535 0.213662 0.507569 0.704123 0.225914 0.460007 0.888129 0.0399452 
0.520316 0.852114 0.03554 0.536259 0.789613 0.0326234 0.45412 0.874458 0.177607 
0.496102 0.848525 0.09489 0.463806 0.868974 0.260663 0.438816 0.802237 0.269008 
0.417857 0.951065 0.0373628 0.373764 1.08808 0.032589 0.46634 1.00325 0.0331278 
0.401346 0.995374 0.0954577 0.416765 0.9468 0.151306 0.469443 0.963549 0.0917169 
0.485432 0.939456 0.263551 0.419858 0.97139 0.261479 0.535453 0.981482 0.2689 
0.461516 0.94916 0.203609 0.384339 1.02246 0.0323964 0.36583 1.0528 0.0846853 
0.462871 1.03129 0.0899976 0.363074 1.06182 0.158265 0.395943 1.00358 0.196774 
0.441975 1.05005 0.264238 0.377426 1.02804 0.267487 0.483257 1.00179 0.237087 
0.458348 1.13434 0.0385419 0.470574 1.08205 0.122987 0.427827 1.04076 0.13955 
0.360659 1.08911 0.269156 0.527395 1.17716 0.175951 0.490223 1.10074 0.267884 
0.407662 1.08715 0.213531 0.430268 1.13239 0.264219 0.445613 1.11888 0.167114 
0.358596 1.15923 0.260112 0.511557 1.18612 0.0381095 0.499068 1.14559 0.120532 
0.438216 1.20424 0.034193 0.37005 1.19999 0.101295 0.381468 1.1322 0.165411 
0.33889 1.23566 0.260952 0.453335 1.16615 0.207998 0.403233 1.20548 0.222808 
0.469628 1.18984 0.26612 0.487963 1.2541 0.0362705 0.313032 1.21131 0.137278 
0.461192 1.24794 0.22558 0.30047 1.21173 0.203872 0.475319 1.21016 0.170035 
0.373767 1.22569 0.164364 0.63928 0.232264 0.180341 0.563748 0.413709 0.0317217 
0.660159 0.192641 0.0577475 0.660054 0.287883 0.213249 0.640307 0.240793 0.263508 
0.668777 0.174852 0.207415 0.642332 0.224396 0.115931 0.630738 0.403611 0.0363504 
0.591679 0.421733 0.0892632 0.527429 0.50881 0.265843 0.606441 0.485267 0.263218 
0.617251 0.291419 0.15849 0.640068 0.376815 0.246885 0.614508 0.459091 0.135503 
0.588938 0.54549 0.0375218 0.660947 0.421742 0.100835 0.534816 0.634878 0.131122 
0.605849 0.527393 0.147126 0.576817 0.522925 0.212093 0.59318 0.432236 0.220384 
0.613155 0.622723 0.266298 0.603732 0.716153 0.0390333 0.555433 0.608647 0.0643054 
0.570491 0.731956 0.0993054 0.566891 0.696113 0.158411 0.600434 0.7083 0.268226 
0.592818 0.632935 0.175617 0.645931 0.637354 0.211757 0.571688 0.670736 0.224643 
0.597821 0.756658 0.159897 0.587406 0.665724 0.0953737 0.639457 0.785569 0.0390323 
0.562285 0.793905 0.0910131 0.540638 0.812565 0.19002 0.545791 0.830615 0.26183 
0.61666 0.772758 0.265258 0.515279 0.871537 0.211744 0.625815 0.706856 0.201903 
0.600645 0.818989 0.221289 0.585421 0.835634 0.0347551 0.561257 0.857339 0.0931116 
0.56583 0.907297 0.0397018 0.504056 0.941846 0.0315437 0.55238 0.908055 0.260438 
0.59891 0.965388 0.265548 0.528717 0.861345 0.146351 0.506563 0.920668 0.170643 
0.536374 1.00072 0.0518751 0.52341 0.913734 0.10442 0.47309 1.05731 0.19108 
0.469648 0.994149 0.155526 0.53815 0.987329 0.137264 0.518627 1.04459 0.269178 
0.570549 0.94328 0.192208 0.436786 1.06437 0.03478 0.538761 1.12257 0.0335701 
0.573461 1.06231 0.0351738 0.50436 1.06177 0.0328709 0.552304 1.10586 0.0954761 
0.522474 1.04852 0.103999 0.542327 1.00695 0.20901 0.503298 1.12365 0.204954 
0.539373 1.23216 0.089251 0.575012 1.20985 0.0322881 0.564509 1.17472 0.12289 
0.522754 1.08807 0.153365 0.605252 1.08537 0.268672 0.54084 1.23582 0.159328 
0.534244 1.21046 0.23764 0.567507 1.12739 0.179234 0.557054 1.07134 0.214923 
0.553923 1.13482 0.259468 0.640672 1.20494 0.0423437 0.622883 1.20717 0.109743 
0.465685 1.21286 0.101013 0.648204 1.23367 0.22144 0.596198 1.19639 0.186222 
0.773199 1.1648 0.20572 0.678936 0.131 0.039774 0.693287 0.119559 0.115175 
0.721562 0.0322026 0.193136 0.682134 0.133971 0.265509 0.697591 0.0951167 0.184157 
0.636803 0.2616 0.0387316 0.696901 0.314978 0.03966 0.701672 0.225584 0.151179 
0.70489 0.265185 0.267352 0.640146 0.404602 0.173359 0.695599 0.199623 0.267448 
0.679442 0.32605 0.266701 0.663662 0.336253 0.1382 0.677862 0.456743 0.0403637 
0.655785 0.493107 0.0967698 0.650698 0.353569 0.0774447 0.685084 0.46568 0.157088 
0.650983 0.458735 0.216946 0.682415 0.278587 0.104636 0.730337 0.411545 0.19855 
0.69141 0.353609 0.201671 0.61227 0.642548 0.0351635 0.659698 0.523805 0.034931 
0.635932 0.55772 0.0895935 0.595866 0.600062 0.119676 0.648526 0.604311 0.156781 
0.664419 0.681472 0.262129 0.63991 0.543827 0.269081 0.687745 0.580244 0.207385 
0.617668 0.576982 0.20975 0.674678 0.544509 0.150211 0.678788 0.514005 0.206489 
0.630389 0.712922 0.122861 0.658374 0.651213 0.0931324 0.698069 0.571169 0.0976476 
0.709394 0.624809 0.14075 0.717008 0.645566 0.206637 0.662559 0.820135 0.268701 
0.665898 0.669699 0.160745 0.624582 0.800856 0.117355 0.648376 0.874012 0.0391024 
0.689801 0.758987 0.0794635 0.707463 0.699591 0.0853237 0.681313 0.761217 0.149071 
0.638026 0.773043 0.203178 0.697295 0.714242 0.205231 0.614629 0.864859 0.265677 
0.582068 0.870152 0.183611 0.615189 0.966285 0.037251 0.668554 0.98243 0.0766324 
0.632257 0.866795 0.106632 0.644767 0.925061 0.0880626 0.587529 0.90521 0.124573 
0.610216 0.964779 0.138826 0.635695 0.982006 0.209819 0.6793 0.846395 0.147873 
0.635558 0.919678 0.233826 0.643735 0.860943 0.205936 0.632224 0.913725 0.169208 
0.631421 1.10603 0.0300628 0.642379 1.03684 0.0385691 0.694926 1.08924 0.0358771 
0.575213 0.95427 0.0904447 0.596076 1.01815 0.0954387 0.668046 1.04059 0.115166 
0.578702 1.02848 0.260259 0.614273 1.02259 0.162043 0.67281 1.02844 0.183386 
0.616523 1.08737 0.0906243 0.62314 1.14078 0.138234 0.697582 1.16214 0.0370852 
0.595609 1.15163 0.0645471 0.581949 1.07428 0.145638 0.624259 1.05378 0.217038 
0.742264 1.12938 0.0836761 0.637085 1.1306 0.223757 0.661419 1.0897 0.167809 
0.60367 1.19335 0.26361 0.750264 1.20908 0.033559 0.792635 1.17838 0.102166 
0.690962 1.16757 0.106112 0.673897 1.19576 0.168676 0.677366 1.18518 0.26164 
0.721406 0.0826923 0.0341653 0.753187 0.12053 0.077411 0.718109 0.0492152 0.120889 
0.784142 0.057613 0.127893 0.723627 0.0410505 0.262227 0.735992 0.105115 0.244339 
0.707621 0.24116 0.0350564 0.749328 0.179875 0.0391968 0.768031 0.26606 0.0304511 
0.735534 0.178836 0.110687 0.726932 0.155962 0.172405 0.75592 0.166032 0.263424 
0.7745 0.229572 0.15453 0.770128 0.24121 0.263002 0.732159 0.208733 0.212736 
0.703925 0.390651 0.0363953 0.766311 0.327898 0.0314024 0.721823 0.333035 0.103283 
0.747391 0.250485 0.0926684 0.734658 0.416903 0.0925189 0.765431 0.372718 0.12856 
0.704747 0.38763 0.141746 0.748841 0.318432 0.262951 0.732848 0.280643 0.197354 
0.696947 0.421166 0.260496 0.724518 0.510066 0.0893429 0.750141 0.462812 0.0378086 
0.795397 0.481416 0.0868976 0.75526 0.467534 0.137594 0.791627 0.41791 0.171672 
0.676284 0.490877 0.266655 0.804868 0.511606 0.264175 0.772395 0.397982 0.260581 
0.742156 0.480529 0.245328 0.717899 0.546886 0.263652 0.670742 0.596907 0.0391135 
0.693113 0.66349 0.0315321 0.738488 0.530558 0.176807 0.761993 0.578722 0.122691 
0.678487 0.611464 0.2674 0.753478 0.584209 0.216331 0.743036 0.619967 0.267491 
0.673366 0.72321 0.0313703 0.747054 0.745781 0.111322 0.75762 0.68974 0.0384582 
0.728312 0.753204 0.0312102 0.747078 0.653539 0.0969239 0.740602 0.691033 0.261133 
0.689319 0.813617 0.208705 0.727547 0.689754 0.147385 0.752008 0.743345 0.179005 
0.681989 0.747091 0.269539 0.702302 0.931857 0.0399811 0.718061 0.850386 0.0346072 
0.681948 0.822113 0.0842923 0.694662 0.885373 0.094938 0.740648 0.808164 0.159025 
0.739113 0.83485 0.260085 0.727292 0.765349 0.233639 0.681364 0.883083 0.265521 
0.712283 0.875134 0.208328 0.688014 0.948228 0.268914 0.718066 1.01723 0.0398216 
0.726414 1.06616 0.0890604 0.72884 0.948969 0.107501 0.689702 0.943333 0.205856 
0.672154 0.974033 0.13906 0.692258 0.915896 0.149716 0.731637 1.00629 0.154656 
[...]
POINT_DATA 1274
FIELD FieldData 10
VELOCITY 3 1274 double
0.00052503640128 -0.0011501299256 -2.7453160388e-05 0.00029474800785 -0.00071175083394 -2.8395753401e-05 0.00065287830982 -0.0015964487767 3.511611758e-06 
0.00033232320122 -6.4670845525e-05 -0.0013434062998 0.00059165217946 -0.0009676276325 -4.4663071217e-05 0.00038289109204 -0.00058573164378 0.00037892215905 
7.7527631888e-05 -0.0003049787129 -0.0004893156887 -0.00042423271181 -0.00086778465072 -0.00011600316549 0.00034755010226 -0.00083945493406 -0.00012263971441 
7.2101541168e-06 -0.00070763972091 0.00034382872179 0.00036696915331 -0.00053634727384 0.00075149398876 0.00039766713669 -0.001144721367 -2.9721416256e-05 
0.00030917166943 -0.00082506078167 -3.3442447236e-07 0.00049537775527 -0.0010626912774 0.00048288122 0.00027162413367 -0.00061489828029 -9.3658008767e-05 
0.00036450639526 -0.00071109251451 -4.5560228297e-05 0.00029789165471 -0.00068048422649 0.00020287047998 0.00044064034199 -0.001101571134 1.7507074018e-05 
0.00067219632452 -0.00094024159785 -0.00014984752778 0.00064951416198 -0.00065532027532 0.00016110838154 0.00039163294591 -0.00098914183882 0.0003556812415 
2.3984522576e-05 -0.00072320651204 0.00010712083929 0.00023496229931 -0.00056244429012 -0.0001750595162 0.00026663148961 -0.00056486993032 -0.00023555720984 
0.0004262902109 -0.0010493485203 -0.00038120880162 0.00021915479661 -0.00069281465861 0.00023431712234 0.0002559663534 -0.00057237379965 2.9663372098e-05 
0.00055155605103 -0.0013380266611 -1.0747813123e-05 0.00035147417679 -0.00092170421542 -0.00089188022935 0.00028201885141 -0.00073123066154 0.00016327765401 
0.00011158876623 -0.0016333986465 -7.3505904657e-06 0.00033296120855 -0.00064435766507 -3.9758301036e-05 0.00027622766732 -0.00073142399316 -0.00015415055172 
0.00039657111316 -0.0010283631392 -0.00031134155352 0.00095858672995 -0.0011578098823 0.00044146605951 0.00030966161003 -0.00071334134047 -0.0001638241168 
0.0003219267777 -0.00084240480306 -0.00028000233523 0.00028845193423 -0.00072184713535 -0.00012574491017 0.00010653803623 -0.00075220899333 -0.00010503155163 
0.00018879826941 -0.00047653012975 -4.0571742847e-06 0.00064502982467 -0.0014573725567 -0.00029337644556 0.00042692773415 -0.00074436640452 -0.00020978976349 
0.00028863030067 -0.00072534194226 -0.00011156738906 -7.7049638024e-05 -0.0005591701181 7.6767875619e-06 0.00029014859 -0.0007302444519 -0.00016177073002 
0.00063802321641 -0.001276749322 2.8968646852e-05 0.00021577896264 -0.000530027342 -0.00042311989718 0.00030448159641 -0.00073165647413 -0.00018079066139 
-5.3652638231e-05 0.00042383025881 1.6969319592e-05 -0.0014717347282 8.0046959774e-05 -0.00087688184906 0.00018690728142 -0.00021713481239 0.0007229624747 
0.00034214344197 -0.00085755910115 0.00068508046872 0.00045276833957 -0.0024351984627 -0.00073092341367 0.00071505780247 -0.0018467557754 -0.00010705458187 
0.0004509601977 -0.00085048846761 -0.00072348606042 0.00049833375718 -0.0011720757584 -0.00067338839085 0.00012915540959 -0.00034570585482 -1.8471632021e-05 
-0.00012121892106 0.00022563158359 -0.00040386020504 -2.2126716686e-05 -0.00012947799458 7.1666972824e-05 -0.00081599149574 -0.0011732122987 -0.00087442672997 
6.9419455188e-05 -0.0004398422832 -6.4594468529e-05 0.00015043384155 -0.00072186666853 -2.5283761235e-05 -0.00029454974081 -0.00077918125715 -0.00012054277019 
0.00010127138741 -0.0004974185572 8.834045559e-05 0.00092533551884 -0.00019306807898 -0.00043609135457 6.2143080647e-05 -7.1717247614e-05 0.00036504271467 
0.00018421114721 -0.0005906967608 0.00080226089514 0.00015526282961 -0.00068969794889 -0.00026392511783 -0.0001201785673 -0.0005186006256 0.0010902291847 
-0.00024921189228 -0.0011126821342 5.14556249e-05 0.00014554530843 -0.000292968618 -0.00048568120591 0.00025393049291 -0.0005755040988 0.00034787139174 
1.4285980216e-05 -0.00031269002469 -0.00040381025701 0.00096800825072 -0.00067099284929 5.4566775934e-05 0.00025692521083 -0.00054305287628 -8.4428541187e-05 
0.00040900067488 -0.0016784965533 0.00066066521409 0.00030328324166 -0.00082967854078 0.00011874730059 0.0001449022232 -0.0011840583309 0.00024742584073 
0.0004844071807 -0.00089511366741 0.00016963773959 2.4990620286e-05 -0.0005296097026 0.00027702013533 0.00020830036067 -0.00073738696094 -2.8758948141e-05 
0.00011963857212 -0.00054050543556 -0.00026064666285 0.00013993468947 -0.0012284794352 0.00044271389301 0.00031805394033 -0.0011459504246 0.00018153440486 
0.00022860194683 -0.00089240747005 0.00023496689449 0.00058506604108 -0.0015409566628 -0.0010872526881 -0.00010435334255 -0.00080644690987 -0.00023138311937 
-0.00016853058232 -0.00099764403463 0.00012102790647 1.3949126816e-06 -0.00072319428393 -0.0004459507195 -6.109015747e-05 -0.00089932637332 -2.936539065e-05 
0.00044585249889 -0.00088220345084 -0.00017600954312 -0.00062295216122 -0.00061220463152 -2.6844330305e-05 7.1320848071e-05 -0.00096063756472 8.5932173998e-05 
0.0004350004738 -0.0004898870393 4.5442247638e-05 0.00020028383297 -0.0009134265042 -3.5327391799e-05 0.00038076643746 -0.00093237120205 5.1608161282e-06 
0.00064635215141 -0.00077415444091 0.00028699560104 0.00061027111439 -0.0008831360846 0.00026518240675 0.00063658972152 -0.00058169730803 0.00011672289198 
1.6463661181e-05 -0.00086924899981 0.00073907694247 0.0003243642037 -0.00058230284308 -0.00011437583627 0.00018285534824 -0.00095923648981 4.986717367e-06 
0.0006992465351 -0.0022292046165 0.00029005414028 0.00034449481674 -0.0011625268375 -1.4893884277e-05 0.00025799591569 -0.0011414690151 -5.8104010933e-05 
-0.00051145195693 -0.00076270192703 -8.057297654e-05 0.00029839185537 -0.00078335816424 -0.00019226265502 0.00026933943639 -0.00069776056893 1.3600730841e-05 
0.00026268911437 -0.00045958231746 3.4813718531e-05 0.00015645247785 -0.00080695312885 0.00029172866695 -0.00016243513656 -0.0010437914196 0.00036262040645 
0.000916415573 -0.0011891134635 -0.00013486974644 -9.0298618601e-05 -0.00067067164568 -0.0003509057562 0.00035374614814 -0.00094774071339 0.00064369030152 
-0.00013354219579 -0.00084563295363 -9.0695995665e-06 0.00048459303828 -0.0010382496 0.00025714251876 0.00015792163321 -0.000856438182 2.9677680751e-05 
-0.00019288430547 -0.00069491573024 0.00015743475237 0.00024690466929 -0.00069020606622 5.2046226307e-06 0.00032425648185 -0.0010085170019 0.00017813392373 
-0.00014457460214 -0.00083597122064 -4.9076416019e-05 0.00043376013927 -0.00069229297476 -0.00023914051606 0.00024627150786 -0.00081363979529 0.00025039763298 
0.00074147285021 -0.00098496887087 -1.3135418755e-05 -7.4764863167e-05 -0.0012017519818 0.0004436697288 0.00033263074497 -0.00078474757551 -0.00051823746877 
0.00014470053549 -0.00076206637175 1.5453350093e-05 -0.00010679421437 -0.001023941256 0.00016730363568 0.00050854477266 -0.00062042637215 0.0010006284082 
0.00019199463302 -0.00062305777675 -3.3613138659e-05 0.00045308824415 -0.00068138459408 -1.6591724093e-05 0.00023470416022 -0.00070152359166 -6.8332392441e-05 
0.00054182779991 -0.00063423828114 -7.7449763358e-05 0.00028451603861 -0.00086347903777 -6.0683891136e-05 0.00027666813285 -0.0010658317938 0.00015443539886 
0.00019254112093 -0.0018980986026 0.00070128996663 -0.00021390351836 0.00060166498397 0.0003434272207 5.759792858e-05 0.00029832677159 -0.00033819108436 
0.00023317355478 -0.00027476501332 0.00051740438578 -0.00071874945493 -0.00073565114031 -0.00044073515066 -4.6013240308e-05 0.00024485398994 0.00052119291189 
-0.00019121606093 0.00040594718042 5.135832805e-05 -0.00031924397558 0.00045243267409 0.00022160736093 -0.0016030794413 -0.0013693678798 0.00030701283339 
0.00079856689864 -0.00013984239923 -0.00020474195893 0.00034962363872 -0.00073116067903 2.8903098787e-05 0.0003894172249 -0.00089431716607 -4.2498914533e-05 
0.00017260299393 0.00077306690205 -0.0005550267924 0.00059435605446 -0.00016482083251 0.00099219536341 0.0012730443043 -0.00078325210948 0.00046968689197 
0.00052254232438 -0.00074053108907 -3.79371984e-05 0.0003893877028 -0.0010545949961 -0.00017082797653 3.0555030008e-05 -0.00066330448713 6.6786933435e-05 
0.00052390319448 -0.00076351925673 -0.00062840776069 0.0005938683815 -0.00064491773923 0.00041206951674 -0.00059572014303 -0.00016125435189 0.00062792338881 
-0.00033230459015 -0.00039028662725 0.00013394769045 -0.00016987878216 -0.0011304524042 -8.7070866025e-05 -7.8951543367e-05 -0.00085579934072 -0.0001798280563 
0.00030829982015 -0.00046618116016 -0.00010786619876 0.00073367208603 -0.0013744204912 0.00030825103511 0.0004926727508 -0.0011021010209 1.5377562637e-05 
0.00064755166207 -0.00083520559208 0.00050472557114 0.00058163903004 -0.0021349899899 0.00035718824673 -9.2974486472e-05 -0.0011114332061 0.00027589806599 
-0.00099808366235 0.00092464884282 -0.00033284710045 9.0777078708e-05 -0.00037798660872 -0.00038434838918 0.00014077351843 -0.0011344410826 -7.8557094033e-05 
0.00013651727791 -0.0012713634911 0.00026028504666 -0.00062281819556 -0.0005427807186 -0.00011420278961 0.0005895532883 -0.00078642235788 4.853560281e-05 
-0.00036387482287 7.100161712e-05 -5.1442952753e-05 -0.00016574329737 -0.00075012985439 0.00042729565704 0.0001157313705 -0.00061271577405 0.00068797816685 
5.9786238142e-05 -0.0010792268319 -0.00028667342518 0.00021985233465 -0.0010091627483 0.00024149767387 0.00021121271169 -0.0011755111729 2.9243004459e-05 
-7.7159584243e-05 -0.00094767561133 -0.00010464628819 0.00010254370685 -0.00092968632203 4.4233405504e-05 2.6845334452e-05 -0.00076537548893 -6.5364302593e-05 
0.00023252726484 -0.00068029370384 9.3955116666e-05 -4.3974560071e-05 -0.00046090873133 0.00011614263152 0.00055105826742 -0.0016716163639 -0.0003378483841 
0.00035995491392 -0.0012758344355 0.0005902943397 0.00046982713462 -0.00097976783786 -0.00047038042556 0.00010897316334 -0.00082355368957 0.00059427982749 
0.00056192341032 -0.00087360996662 0.00062225964756 0.00021478431266 -0.00069757697107 -0.0002616273018 0.0001216658299 -0.00092263905176 1.2636774069e-05 
0.00019828982004 -0.00049736631589 0.00020068191547 0.00012091078194 -0.00099577644898 8.3338622418e-05 1.5445022775e-05 -0.00089114422778 -2.2947625841e-05 
5.6310830983e-05 -0.0012212183268 -2.2451992739e-05 0.00021068018771 -0.0015447611891 -3.1654812358e-05 -3.2338536663e-05 -0.00099759078587 -3.6243807407e-05 
-0.00045330123973 -0.00083702317796 -0.00013020466885 -0.00035349524862 -0.00075499873812 -5.9617411287e-05 3.8075462579e-05 -0.00076772748195 0.00013543796404 
0.00029454124108 -0.00088206833626 -6.080005364e-05 0.00049361746894 -0.00075600127161 1.0868652705e-05 0.00023365091312 -0.00086661065469 6.8275792271e-05 
-0.00012846672759 -0.0012949767093 0.00018880055945 -9.0273884075e-05 -0.00075548787354 1.9678600766e-05 0.00030773697079 -0.00094686231718 -6.5404874521e-05 
0.0001192522152 -0.00041051789466 -1.7900198313e-05 1.2729677414e-06 -0.0012561036396 -0.00062801956888 -0.00028603155526 -0.00076391262837 8.2401411684e-05 
0.00021500118224 -0.00050549104956 -1.8590289517e-05 0.00051193988055 -0.0010153820698 -0.00029251074291 0.00034915266939 -0.0012768118708 -0.00029264325734 
0.00033466484337 -0.00080895429838 0.00015882384755 0.00038860077178 -0.00077120404562 -8.0111225375e-05 0.00034966156449 -0.000775759425 -4.0711796476e-05 
5.8698579268e-05 -0.0011942604219 -9.8170361e-06 -1.7431653118e-05 -4.2503580556e-05 -0.00030456617935 -1.5028076699e-05 -0.00020886073054 0.000664852099 
0.00028766206531 -0.00019060627157 -0.00015031150563 4.6363733826e-05 0.00016880540221 -0.00021241506772 -0.00011519206544 0.00020672370058 0.0012000017062 
-0.00021984068794 -0.00057878022282 9.0842569195e-05 -0.00070255398428 -0.00041439750222 -0.00046900082638 -0.0006834394101 0.00046430638198 0.00048881395375 
0.00022763700642 -0.00088571845798 -0.00027527304311 -0.00020433538216 -0.00089143225337 -6.1789043251e-05 0.00032126762845 -0.0002039603266 -6.7095802916e-05 
0.0026858324924 -0.00038692665711 -1.543239592e-05 -0.00086975109112 -0.00066670279272 0.0003087928956 -0.00060241857356 -0.00074135229666 -0.0011979152372 
0.0007394521568 -0.00061060992844 -0.00020360763985 0.00017988563177 -0.0011787328855 -0.00010719023645 -0.00017530777427 -0.00062628100344 -0.00017365575945 
0.00073962192427 -0.0024994728364 0.00059249391383 0.0015323775689 0.00014530790318 0.00044477444451 0.0009020502907 -0.00061498582799 0.00096024515469 
0.00038462433287 -0.00012437065297 0.00010572786423 0.00021029461475 -0.00095011260834 0.00045239165164 -0.00054593398026 -0.00060294090665 -4.4107317437e-05 
0.00030128415574 -0.00046259108407 0.00025714697073 0.0002026311482 0.00012748187646 -7.5420148967e-05 0.0003447600572 -0.0018383975136 -0.0001000264003 
0.0003383394261 -0.0013282407465 -5.2786503863e-05 0.00021780725756 -0.00068922276961 -9.3118740664e-06 -0.0001393681014 -0.0010099210511 -0.00042552243114 
-0.00012119956104 -0.00038678294456 0.0004967524765 0.00096774590569 -0.00045231027922 0.0005036930888 -0.00044593691678 -0.0017347803319 -0.00040532589596 
0.00073156365225 -0.0013434473523 0.00044331657293 0.00017358620386 -0.0015613569874 0.00072953753559 0.00069591107655 -0.0026587670401 -0.0010558986637 
-2.623857801e-05 -0.0010594867756 0.00017083162989 -7.8230060286e-05 -0.00088886378473 8.9388167303e-05 0.00091795169639 -0.0015684270516 6.2908989382e-05 
6.2496831337e-05 -0.0013972764839 0.00048448727428 0.00040175179777 -0.00084512829512 0.00019397517514 0.00010532076166 -0.00070083266988 -4.4024924003e-05 
0.00010972169124 -0.0009527613885 0.00013534270001 -0.00064480355586 -0.0010694060194 -0.00064710042119 -3.4562998698e-05 -0.00026828804922 5.2650840298e-05 
0.00059853063658 -0.0024829924255 0.00032510386254 0.0004865554816 -0.0015630532108 -0.00025287416826 0.00057030880632 -0.0013970107646 -4.2733229748e-06 
-0.00023006266779 -0.00084498097627 0.00078960394071 0.00019661809871 -0.0012385150293 6.2729335899e-05 -0.00010907005437 -0.00093126736811 0.0001684380319 
0.00089587433583 -0.00072715097185 0.00018704611542 0.00030418235271 -0.00065375018751 -4.4979694727e-05 0.00033450033665 -0.0012063145972 -7.779110546e-05 
0.00012833011575 -0.00077402397926 7.0696462193e-06 0.00038834961217 -0.001345565875 -8.7020075167e-05 0.00094889293511 -0.0010688035051 -4.83062124e-05 
-3.9968719828e-05 -0.001259994692 0.00038337483374 0.00019008281339 -0.0016251406135 -0.0012109517649 -0.00028190426095 -0.00070526027523 5.6246704543e-05 
0.00032597075473 -0.00062711445218 1.2552968458e-05 0.00011507668539 -0.0012135975368 -0.00065507429578 4.2800235477e-05 -0.0011379602655 1.2522815964e-05 
0.00022495507512 -0.001250387653 0.00017453545474 0.00082038270721 -0.0011719306506 -9.7336389027e-05 0.00040390871935 -0.0006597092766 7.9325847548e-05 
0.00010024822628 -0.00077895599394 -0.00024975156941 0.00016956884815 -0.0010444603756 0.00011163756108 0.00017868274493 -0.00099417484593 -0.00015531409036 
-0.00011236635845 -0.0011102977511 -0.00030782702937 0.00010345578572 -0.0010833325661 9.7737284541e-05 0.00045986718239 -0.0011533555377 1.4845067403e-05 
2.7501022571e-06 -0.00089868032916 1.7249138305e-05 -0.00025200347991 -0.0014887685821 -0.00037342812733 -0.00024491144873 -0.00082203613251 -3.2720627042e-05 
0.00029423059636 -0.0010026526735 0.000226222887 0.00056828979194 -0.00090357306858 0.00026719924392 1.404824578e-06 -0.0010307616977 0.00013688735124 
0.00018238827602 -0.00054520427205 -1.6495731225e-05 0.0004895011836 -0.0012068884116 -2.0076372011e-05 0.00045627071806 -0.0012517058728 0.00042399944345 
0.00033044629454 -0.00072049638108 -5.6366221479e-05 0.00044611468371 -0.00090595310901 5.227190576e-05 0.00013096975233 -0.00055092568525 0.00035709777807 
0.00015985434896 -6.9145779714e-05 2.910538949e-05 4.3672094558e-05 -0.0008710519353 0.00030389665709 4.02269803e-05 -0.00015433852946 0.0013921237066 
-0.00045058117417 -0.0011751467824 0.0013008026801 0.00014871040327 -0.00037366808556 0.0002953112803 0.0002576877751 -0.00057625122497 0.0010456650698 
0.00030135646549 -0.00026055844212 0.00098343214651 -0.00066874926036 -0.00071030961848 -5.1829041053e-05 -0.00012326442337 0.0016536694705 -0.00068797732149 
0.00025557416712 -0.00032422092526 0.0012306564659 -0.00086093329829 -6.8677544027e-05 -0.00080080480598 -6.4186008758e-05 -0.00065244667902 7.0285802592e-06 
0.0017729349125 0.00064230542086 -0.00027024532543 0.00042002014541 -0.00058830602672 9.7896906496e-06 -0.0003570628662 -0.00061222624084 0.00014808128541 
0.0004918601838 -0.00032130781248 0.00040524577112 0.00043213124083 -5.4086946899e-05 8.7005778333e-05 0.00051124108623 -0.00033051966569 2.3619986434e-06 
-0.00010086037651 -0.00034748490732 6.9982812177e-05 0.00094159693272 -0.0010712744062 2.5377332752e-05 0.00055966302888 -0.00066204975018 0.00065127628349 
0.00042440325375 -0.00029323971728 0.00011520637312 0.00040290090587 -0.00084588566788 0.00041398985634 -0.00010539011566 -0.00023570904276 0.0010781406046 
-0.00043991057868 0.00072954055796 -0.00024142823144 -0.00072976462774 -0.0017578022542 0.0012385109158 -0.00075036990079 -0.00035077936246 5.1785687787e-05 
-0.00082378001436 -0.0029583796175 0.0012297719057 0.00027286905139 -0.00063630917909 0.0015734576868 0.00052691120854 -0.00082614161434 0.0015253834983 
0.00010018063868 -0.00027634153689 3.8772104808e-05 -0.00073903269543 -0.00035991548107 0.00025892160845 -0.00066671193152 -0.00070668143355 0.00027525841168 
0.00020863073032 0.00011424237828 -0.000379285124 -0.00016462676602 -0.00014703787282 -8.991893616e-06 -2.6487185151e-06 -0.00084701791238 2.5721255342e-05 
0.00026252367823 -0.00068535058175 0.00048954072487 0.00026425379687 -0.0014039564863 0.00023227189288 0.00037863237198 -0.00055893148389 0.00022432063515 
-0.00068351222044 -0.0020543945169 -1.333247175e-05 -0.00017550836218 -0.0007426000333 -9.6135069509e-05 -0.0008491996625 -0.0009993001045 -0.00032438489384 
-0.00032180241618 -0.00075221293382 0.00011903471887 -0.00080487142524 -0.001019471823 -0.00036453723313 -0.00015116452501 -0.00079993898833 -0.00018005950924 
-4.0067652731e-05 -0.00085120913129 -7.246663817e-06 -0.00038701848033 -0.00088002880989 -9.1979039241e-05 0.00026565334945 -0.00091419583065 8.4026763634e-05 
0.00031945465337 -0.0010355164006 -0.00017958396824 -0.00014578060657 -0.00092604654617 -6.4932801884e-05 -5.1674131637e-05 -0.00052396190673 0.00012289506551 
-0.00065476251186 -0.0011647635716 -1.0290871103e-05 0.00022568345829 -0.00053046805321 8.2607471019e-05 0.00047475649421 -0.00099351840873 8.3062958205e-05 
-0.00041549697576 -0.00060614320115 -0.00073621697265 0.00023879339489 -0.00091957896853 -0.00020040389975 0.00035019658913 -0.00080664108853 0.00013203885672 
0.00025676703756 -0.0011611384433 1.1213875077e-05 -0.00067642330839 -0.00056184417187 0.00029300079998 0.00014267683561 -0.0011657470069 -4.2715346347e-05 
-0.00026821801428 -0.0010854368715 0.00032274625274 -0.00038238037335 -0.0010906155601 -9.7358393633e-06 9.0630700125e-05 -0.0011291662683 3.0600416165e-05 
0.00031409452473 -0.0010024999923 -0.00022183219725 0.00011039776942 -0.00085857201883 6.3217651846e-05 0.00046931889007 -0.0012259155419 -2.4899004731e-05 
0.00014461735585 -0.00071634609028 -0.00018065084857 -0.00094933817217 -0.0018933783382 0.00037017830484 0.00047298072134 -0.0010345792134 -0.0003093753059 
7.6173502985e-05 -0.00056343281331 2.5423011719e-05 7.1925976062e-05 -0.0010229914913 9.7072952042e-06 -1.5465086198e-05 -0.0011998212691 -0.00012765183836 
0.00012155489196 -0.00083430817967 2.1866204863e-06 0.0006772888413 -0.00095411702826 1.5669412168e-05 0.00013902421466 -0.0011497121065 -0.00013116880477 
0.00032553257011 -0.0012563764083 5.9372489149e-05 4.6870246287e-05 -0.00066763593568 -0.00014242647392 -0.00017317687304 -0.0013950661198 -0.00022061987644 
-0.00014203492369 -0.0010503752429 2.7018825353e-05 0.00020018036282 -0.001135060902 -0.00013495448677 0.00041142991015 -0.00089362657419 0.00022432464082 
4.4878333996e-05 -0.00090852277409 5.0773895088e-05 0.00013336647097 -0.00073841866609 -0.00049770504763 -5.9970286857e-05 -0.00092045750279 -2.9204240086e-05 