# vtk DataFile Version 4.1
vtk output
ASCII
DATASET UNSTRUCTURED_GRID
POINTS 1274 float
0.512963 0.553913 0.0379533 0.469526 0.651165 0.105279 0.487871 0.598013 0.268458 
0.494772 0.587524 0.0988515 0.42366 0.755985 0.0323155 0.424389 0.768609 0.1196 
0.475544 0.637477 0.212914 0.459502 0.670072 0.268648 0.393962 0.845027 0.0589024 
0.398364 0.812852 0.164777 0.445852 0.699476 0.214993 0.432749 0.738953 0.265757 
0.36292 0.90259 0.0319697 0.343661 0.968429 0.051977 0.381257 0.878577 0.146401 
0.394823 0.844357 0.231899 0.345318 0.957621 0.260042 0.313942 1.03926 0.0387204 
0.390552 0.913838 0.0865897 0.447766 0.899141 0.110138 0.332206 0.996265 0.130011 
0.408789 0.915149 0.218489 0.310336 1.03793 0.265122 0.351959 0.929612 0.187728 
0.28151 1.10209 0.0484743 0.327994 0.987768 0.200727 0.28652 1.10844 0.260298 
0.257693 1.16259 0.0336643 0.35714 1.11571 0.104026 0.301829 1.06903 0.109343 
0.289766 1.25191 0.0382189 0.302844 1.04543 0.200297 0.283535 1.10057 0.172365 
0.333218 1.25547 0.0925632 0.384946 1.15784 0.0375957 0.275554 1.14845 0.110229 
0.421583 1.14991 0.106433 0.260687 1.15055 0.208541 0.340031 1.10703 0.211302 
0.218641 1.25625 0.0332148 0.319974 1.18605 0.0541971 0.319516 1.15681 0.173663 
0.244733 1.19905 0.164523 0.287451 1.18316 0.26484 0.239053 1.22217 0.0936585 
0.372014 1.23167 0.0356631 0.236503 1.23034 0.236429 0.215706 1.25669 0.149631 
0.541061 0.470176 0.0302071 0.611641 0.295394 0.0943202 0.59557 0.358653 0.121667 
0.596872 0.347718 0.197908 0.576099 0.388844 0.266501 0.610187 0.314171 0.262063 
0.540812 0.469734 0.209736 0.508685 0.557899 0.218904 0.603419 0.328837 0.0358989 
0.566617 0.417656 0.159204 0.48402 0.624009 0.0379242 0.609481 0.47526 0.047485 
0.54599 0.474967 0.0985033 0.549555 0.448172 0.268476 0.565176 0.571801 0.26277 
0.527451 0.512372 0.15956 0.550727 0.668749 0.0308611 0.445351 0.711564 0.0786898 
0.517482 0.697914 0.106513 0.471541 0.753562 0.17824 0.551214 0.548104 0.101528 
0.523098 0.658534 0.266702 0.446262 0.697148 0.145938 0.414903 0.777688 0.214443 
0.50101 0.681034 0.169946 0.554507 0.57736 0.168369 0.494139 0.780282 0.0921575 
0.535515 0.76064 0.146359 0.458941 0.814775 0.0363747 0.508385 0.724546 0.0397545 
0.484421 0.818009 0.150751 0.436879 0.835881 0.113057 0.364513 0.894254 0.269731 
0.499349 0.769508 0.260789 0.538694 0.617613 0.219186 0.563343 0.747822 0.220239 
0.467823 0.815784 0.213594 0.506779 0.706037 0.226524 0.459883 0.889479 0.0400031 
0.520395 0.85383 0.035424 0.535731 0.79117 0.0326231 0.453983 0.875849 0.177673 
0.495307 0.850035 0.0952113 0.46464 0.870256 0.260663 0.438667 0.803843 0.269008 
0.417021 0.951931 0.0373634 0.373527 1.08961 0.0325883 0.465986 1.00473 0.0331268 
0.400552 0.99684 0.0950103 0.415729 0.948223 0.150886 0.468391 0.964462 0.0913554 
0.485393 0.941034 0.262531 0.419644 0.972654 0.261479 0.535067 0.983328 0.2689 
0.460309 0.95185 0.203261 0.383727 1.02448 0.0323961 0.365468 1.05464 0.0848736 
0.463411 1.03236 0.0902499 0.362774 1.06314 0.158353 0.395476 1.0048 0.196851 
0.44169 1.05118 0.264237 0.377118 1.02923 0.267487 0.483235 1.00352 0.236426 
0.457074 1.13619 0.0385424 0.470477 1.08329 0.123107 0.427356 1.04212 0.139011 
0.360945 1.09046 0.269156 0.526619 1.1786 0.175505 0.489779 1.1023 0.267785 
0.407783 1.08837 0.213326 0.429696 1.13372 0.264219 0.445401 1.12045 0.166882 
0.358868 1.16058 0.260112 0.511087 1.18714 0.0383619 0.498658 1.14694 0.119955 
0.436962 1.20599 0.0341931 0.369805 1.20168 0.100994 0.381172 1.13345 0.166169 
0.338862 1.23694 0.260951 0.453279 1.16769 0.207769 0.402544 1.20663 0.22144 
0.469278 1.19102 0.266121 0.487453 1.2551 0.0362705 0.312618 1.21245 0.137346 
0.460372 1.24914 0.225715 0.300311 1.21294 0.203988 0.474751 1.21198 0.169823 
0.373284 1.22865 0.163549 0.639513 0.231696 0.17953 0.564082 0.412899 0.0316207 
0.660046 0.192912 0.0568983 0.660836 0.287769 0.213354 0.640234 0.240952 0.263511 
0.668895 0.174572 0.207324 0.642577 0.223809 0.11565 0.631423 0.40555 0.0363486 
0.592101 0.42273 0.0893821 0.52702 0.509803 0.265848 0.605757 0.486613 0.262951 
0.617325 0.291244 0.159144 0.639382 0.377364 0.246359 0.613767 0.460122 0.136151 
0.588076 0.546523 0.0375213 0.66056 0.423303 0.101415 0.534267 0.636036 0.131653 
0.604975 0.528557 0.146834 0.576039 0.524242 0.211857 0.592721 0.433292 0.220404 
0.61354 0.623577 0.266297 0.603712 0.717726 0.0390312 0.55531 0.609904 0.0646282 
0.569722 0.733638 0.0988531 0.566597 0.697604 0.157869 0.599982 0.709767 0.268228 
0.591843 0.634086 0.174813 0.64461 0.639938 0.211252 0.571851 0.671915 0.224499 
0.597281 0.758247 0.159948 0.587177 0.666243 0.0958372 0.639207 0.787261 0.0390315 
0.561798 0.796155 0.0909387 0.541234 0.813751 0.189941 0.545348 0.831729 0.261832 
0.616315 0.774193 0.265251 0.515515 0.872767 0.211119 0.625524 0.70845 0.201335 
0.600458 0.820705 0.22147 0.584972 0.837108 0.0347558 0.560951 0.859599 0.0928752 
0.565993 0.908934 0.0397013 0.504016 0.943118 0.0315441 0.552151 0.909147 0.260437 
0.598391 0.966713 0.265548 0.528607 0.862412 0.146341 0.505912 0.92276 0.171606 
0.535655 1.00258 0.0512357 0.522843 0.915555 0.105433 0.473226 1.05871 0.189991 
0.468906 0.995241 0.155093 0.53761 0.988289 0.137658 0.518192 1.04616 0.269178 
0.570621 0.94419 0.192194 0.436552 1.06591 0.0347801 0.538683 1.12377 0.0335692 
0.573161 1.06408 0.0351738 0.504152 1.06409 0.0328709 0.552242 1.10729 0.0955292 
0.522934 1.04974 0.104402 0.5427 1.00797 0.20907 0.503087 1.12501 0.20481 
0.538811 1.23352 0.0892388 0.574418 1.21114 0.0322881 0.56404 1.17615 0.122917 
0.522854 1.09031 0.152926 0.604994 1.08664 0.268672 0.540316 1.23732 0.159307 
0.534071 1.21102 0.237598 0.567047 1.12918 0.179909 0.556992 1.07249 0.214683 
0.553594 1.13601 0.259467 0.640053 1.20683 0.0427706 0.622263 1.20902 0.110171 
0.46509 1.21422 0.100788 0.647619 1.23518 0.221473 0.595609 1.19786 0.186293 
0.773241 1.1669 0.205844 0.678946 0.130976 0.0401049 0.693155 0.11988 0.113657 
0.721562 0.0322009 0.193083 0.682146 0.133935 0.265511 0.697715 0.0948167 0.1824 
0.636839 0.262154 0.0387366 0.696205 0.315375 0.0396653 0.702069 0.225439 0.150626 
0.704527 0.26609 0.267352 0.640141 0.405801 0.173752 0.695406 0.199627 0.267447 
0.678777 0.326823 0.266688 0.663167 0.336114 0.137967 0.679395 0.457855 0.0412575 
0.65791 0.494469 0.0970167 0.6517 0.355767 0.0776154 0.685703 0.466489 0.157803 
0.650068 0.460763 0.216898 0.682046 0.278468 0.104431 0.72932 0.41199 0.197765 
0.69078 0.353826 0.201411 0.611823 0.64407 0.0351627 0.661112 0.5248 0.0349337 
0.635624 0.558094 0.089188 0.595531 0.599931 0.119921 0.648186 0.606221 0.156744 
0.664017 0.68306 0.262133 0.638778 0.5454 0.269081 0.687366 0.581719 0.207296 
0.6173 0.577972 0.209212 0.673678 0.546136 0.150171 0.678258 0.515506 0.206352 
0.629467 0.714437 0.122661 0.658403 0.653458 0.0923206 0.697529 0.572361 0.0975849 
0.708998 0.626388 0.140095 0.717121 0.646817 0.206576 0.661505 0.822234 0.268702 
0.665648 0.671403 0.160116 0.624317 0.801907 0.117035 0.647919 0.875502 0.0390997 
0.689547 0.760579 0.0793913 0.708279 0.701223 0.0858363 0.680711 0.76233 0.148981 
0.637595 0.77465 0.203129 0.697036 0.715382 0.205068 0.61361 0.866994 0.265677 
0.582624 0.871257 0.182625 0.614966 0.968242 0.0372508 0.668568 0.983844 0.076527 
0.630911 0.86797 0.106371 0.644101 0.926257 0.0883474 0.587067 0.906967 0.12521 
0.610077 0.966321 0.138913 0.635083 0.983709 0.209871 0.677917 0.848036 0.147873 
0.635594 0.921575 0.233653 0.643471 0.863594 0.207623 0.632571 0.915333 0.169048 
0.630835 1.10723 0.0300646 0.642091 1.0388 0.0395353 0.694546 1.09123 0.0358779 
0.574916 0.955768 0.090656 0.594815 1.01997 0.0955506 0.667619 1.0417 0.115512 
0.578228 1.02983 0.260401 0.614094 1.02424 0.161862 0.672377 1.03023 0.18385 
0.616479 1.08882 0.0908361 0.622819 1.14246 0.138229 0.697001 1.16414 0.0370851 
0.595372 1.15299 0.0646918 0.582126 1.07636 0.146135 0.624109 1.05517 0.217002 
0.741563 1.13091 0.0834591 0.636438 1.13199 0.223609 0.661203 1.09137 0.167651 
0.603585 1.19433 0.26361 0.749508 1.21127 0.033559 0.791554 1.18055 0.101252 
0.690028 1.16873 0.106138 0.673258 1.1975 0.168516 0.677297 1.18647 0.261021 
0.721694 0.0829538 0.0341655 0.753581 0.121438 0.0767589 0.717983 0.0495207 0.119146 
0.783958 0.0580973 0.126471 0.723547 0.0412444 0.262519 0.73554 0.104997 0.243315 
0.707651 0.241673 0.0350579 0.750585 0.181245 0.0391979 0.7683 0.265973 0.0304515 
0.736302 0.178595 0.110555 0.7274 0.156436 0.172493 0.756234 0.166965 0.26342 
0.773868 0.229646 0.154971 0.769786 0.242246 0.26274 0.731827 0.209335 0.212747 
0.70334 0.391032 0.0363923 0.765716 0.327775 0.0314121 0.720918 0.333308 0.103405 
0.747538 0.25157 0.0925036 0.733448 0.417964 0.0925325 0.764781 0.373435 0.127656 
0.703924 0.387302 0.141144 0.748195 0.319608 0.263464 0.733644 0.281197 0.197231 
0.697101 0.420433 0.260498 0.726102 0.512465 0.0876768 0.751679 0.463429 0.0378122 
0.796652 0.483593 0.0865581 0.75513 0.468613 0.135808 0.790504 0.418887 0.170779 
0.675543 0.49272 0.266648 0.80427 0.51175 0.264171 0.773197 0.399473 0.260576 
0.741352 0.480683 0.246025 0.718341 0.547672 0.263651 0.67011 0.598191 0.0391222 
0.693686 0.664361 0.0315316 0.737747 0.532163 0.176127 0.761604 0.58028 0.122125 
0.678989 0.613012 0.267401 0.753102 0.585115 0.216448 0.743553 0.621403 0.267463 
0.673475 0.723929 0.0318132 0.747743 0.747458 0.111945 0.757972 0.691134 0.03853 
0.728104 0.754486 0.0312106 0.747949 0.654837 0.0972095 0.740294 0.692438 0.261125 
0.688507 0.815682 0.208822 0.727482 0.691187 0.147201 0.751803 0.744298 0.17875 
0.694452 0.743792 0.269539 0.702132 0.933075 0.03998 0.71767 0.852031 0.0346099 
0.681704 0.823703 0.0843698 0.694303 0.886958 0.0952166 0.740122 0.8091 0.159317 
0.738476 0.836794 0.260085 0.733287 0.773759 0.229922 0.681206 0.884897 0.265523 
0.712635 0.87674 0.207568 0.688096 0.950014 0.268912 0.717785 1.01916 0.0398209 
0.725817 1.06772 0.0894816 0.72835 0.950742 0.107483 0.689504 0.945629 0.205805 
0.672102 0.974974 0.138892 0.692823 0.917176 0.150206 0.731001 1.00807 0.154937 
[...]
POINT_DATA 1274
FIELD FieldData 10
VELOCITY 3 1274 double
0.000668822305 -0.0018155023789 5.7146230487e-05 0.00028011087789 -0.00067061717703 -0.00058423147613 0.00075426390286 -0.0018436244579 3.1542692585e-06 
0.00043958637405 -0.00024164700705 -0.001465302415 0.00021503198486 -0.0007469767932 -5.7999435603e-05 0.00048707384278 -0.00089363806882 0.00081452553275 
0.0003384602572 -0.0011578908866 -0.00027664723566 0.00043279976883 -0.0010873305045 -2.2182619888e-05 0.00056219298903 -0.0013445076187 -5.8100538274e-05 
0.00021244243365 -0.00059048568177 0.00052570137704 0.00087091075476 -0.0017629669444 -0.0013844014375 0.00050193125907 -0.001346888808 7.3488540709e-06 
0.00051318199381 -0.0012912514223 1.3142753702e-06 0.00047528468655 -0.0012372081015 0.00046658909849 0.00027380756723 -0.00076624013934 -6.9450152407e-05 
0.00043466956546 -0.0010232510638 -0.00038571102218 0.00051147434944 -0.0012535818964 -0.00017406755683 0.0005658033398 -0.0013716492863 -7.1699116312e-06 
0.00060114973409 -0.00095161326326 -0.00010505880873 0.00086434106856 -0.00087100265026 -0.00011940466364 0.0004909084519 -0.0010309571018 -4.5394850357e-05 
0.00027214852307 -0.0009938959751 4.2567329059e-05 0.00028883657091 -0.00066180952691 -0.00019325008018 0.00032751787104 -0.00074561998804 -0.00010327682242 
0.00058005586473 -0.0014405572258 0.00052737967035 0.00040720480016 -0.00078490124576 0.00010333937374 0.00024268127546 -0.00064152844428 3.3714935816e-05 
0.00047359554109 -0.0011390259711 1.3844968672e-05 0.00047355849019 -0.00097605867416 -0.00089244748108 0.00029898746536 -0.00065684385824 -0.000438280252 
8.8340439265e-05 -0.0013307804003 1.9244346679e-05 0.00026976514894 -0.00083275671293 -4.2431050453e-05 0.00033846877896 -0.00081050747457 -4.3994349195e-05 
0.00033201452689 -0.00097814580106 -0.00021878991831 0.00060395454839 -0.0012132245084 0.00033014603854 0.00030945682075 -0.00073660845014 -8.1764597806e-06 
0.00039533084799 -0.00093245318228 -7.4773352966e-05 0.00034771051119 -0.0007765084591 -0.0001618090221 0.00021869993377 -0.00088582188224 -0.00012287552335 
0.00015605647488 -0.00036339986685 9.3137286539e-06 0.0005198900675 -0.0011619601511 -0.00024182031042 0.00033756702021 -0.00078318646237 -1.0683296242e-05 
0.00028852966096 -0.00071687581019 -5.6226085199e-05 -5.1648868165e-05 -0.0006265850226 -1.4302001173e-05 0.00032320360481 -0.00078865449383 -0.00028698669897 
0.00074152509991 -0.001346189577 1.80300334e-05 0.00017451203813 -0.0004255960498 -0.00010616406476 0.0003127439619 -0.00076665059116 -0.00030797252791 
-0.00013063734604 0.0007836216148 -2.5330150332e-05 0.00095747652653 -9.1254025767e-05 5.2368525322e-06 -0.00010639415384 -0.00052305835109 0.00077830028137 
0.00020121987507 -0.0004073309485 0.00056228064227 -1.5813097645e-05 -0.001537272545 -0.0017920053735 0.00026757748885 -0.00060758942279 0.00051099062096 
-0.00014026064212 -0.00060508016866 -1.5612583127e-05 0.00093275301985 -0.001456194703 -0.00099973833108 0.00015083097994 -0.00032958817367 1.1298888184e-05 
3.1610854248e-05 -0.00036627377386 -0.00040632485241 0.00073626869553 -0.0017669998683 -0.0013625957863 -0.0017229744134 -0.0017948525573 -0.0017567021691 
7.5280332254e-05 -0.00048837672271 6.4466688669e-05 0.00082891102244 1.2338742643e-05 0.00046540939103 0.00013671240692 -0.00092038525708 -3.3276834702e-05 
0.00039318424825 -0.00086700227438 0.00016389137218 -0.00035819574857 -0.0012965298768 0.00035142073055 2.6806603697e-05 -1.1942531883e-05 0.00033114485788 
0.00023617578868 -0.00068958058364 5.4510676899e-05 0.00036061614396 -0.0008235391451 6.0814238551e-05 0.00015440515036 -0.00055713758192 0.0011233053123 
-0.00026159092423 -0.0014701618307 -9.432887068e-05 0.00027705267393 -0.0006425999399 -0.00047347844997 0.00032812769675 -0.0011931956801 6.0179555363e-05 
0.00011453954451 -0.00074879967477 -0.00014488155018 0.00040665346707 -0.00051754462257 -0.00077069899998 0.00012486635531 -0.00088279471732 -1.8324340276e-05 
0.00087292931525 -0.0016515391544 0.00069256308891 0.00079213296154 -0.00096126720202 -5.0804647513e-05 0.00050204324517 -0.0011463985613 0.0001939625546 
0.00055465350838 -0.0011457875809 0.00037111532424 0.00015429478934 -0.00067938613621 -8.6974267992e-05 0.00053697325628 -0.0012607468462 4.5395122286e-05 
0.00014376630659 -0.00060278709859 -0.00025313395093 0.00049677914669 -0.001022513217 7.4743619745e-05 0.00047753864306 -0.0015302296497 0.00017486139095 
0.00048208175715 -0.0013007182968 0.00043200294741 0.00045647907368 -0.001055602846 0.00010167231827 0.00028137170064 -0.00091644650688 0.00010829188835 
0.00021566711603 -0.0010934598524 -0.00047034472236 9.8921719269e-05 -0.001059360884 0.00013398321186 0.00023732744508 -0.0009449085783 -0.0001614362959 
0.00061905221859 -0.0011712622748 -0.00017999651229 -0.00038018140651 -0.00095310155812 -3.9462596433e-05 7.8550641627e-06 -0.0011832203849 0.00010151773271 
0.00059049516128 -0.0006560277705 -9.7586394886e-05 3.6382965368e-05 -0.001143970805 -6.9278965771e-05 -3.8207106825e-05 -0.0010747323056 -2.3824372078e-06 
0.00026678113266 -0.0011293713824 0.0003396522586 0.00098129326376 -0.001048556889 6.0923100933e-05 0.00063297009675 -0.00067053698543 0.00026014432702 
-8.4758603878e-05 -0.0010788657408 0.00056366441874 0.00023739118445 -0.00083588557968 -0.00014711654142 0.00023845676751 -0.0013088285339 -5.4636051057e-06 
0.00083715837583 -0.001528189884 0.00014530381692 0.00039790276578 -0.0014365198206 -8.4048824631e-05 0.00016687899017 -0.001207007787 -4.5770901919e-05 
9.4340104406e-06 -0.0008506477083 -6.0445724802e-06 0.00011473719008 -0.00090253452891 9.4704783593e-05 0.00031003510823 -0.00088724934181 -4.8052714737e-05 
0.00017719593438 -0.00078610674577 4.311982493e-05 0.00016135597228 -0.00095614536105 0.00028750247262 8.7518488593e-05 -0.0012277991029 0.00032084829776 
0.00058972219796 -0.0011856702619 -6.3729788727e-05 -5.2548639711e-05 -0.00075629881601 -0.00027320152721 0.00029190242477 -0.00094748056558 0.0002138913336 
-0.00018698866744 -0.0010135342359 -1.4288047727e-05 0.00082258014244 -0.00082314471496 0.00034778197116 0.00012294444863 -0.0013077773689 1.2743679535e-05 
0.000119365512 -0.00087068239639 2.7170536452e-05 0.00031687060941 -0.00093786893146 2.427337166e-05 0.00022172282704 -0.00092486264043 7.3936129317e-05 
-0.00022019704192 -0.0010035788009 -2.6863033576e-05 0.00016016491151 -0.00074518442763 3.8165750372e-05 0.00027472577679 -0.00092084416485 0.00076312995408 
0.00074074889929 -0.001393760069 -3.4980756227e-06 0.00052440020457 -0.0008629773952 -0.0002405559343 0.00021028332784 -0.00089140218645 -0.00054206976958 
3.7518271714e-05 -0.00093593298436 4.697414508e-06 0.00012321874285 -0.00089327381715 8.0254368881e-05 0.00028977833606 -0.00091812898455 0.00067981711485 
0.00019497927881 -0.00085344770057 6.0551068903e-06 0.00013046747136 -0.00076474240698 -1.5612462826e-05 0.00036506359568 -0.00078225648388 -1.4251366624e-05 
0.00035844136648 -0.00090485191777 -0.00020286361372 4.2824389783e-05 -0.00086717959863 -8.8068904722e-05 0.00060316978814 -0.0011593407176 3.5232624735e-05 
0.00053762286188 -0.0018076563649 0.00020489300168 -2.6821014619e-05 0.00034075491831 0.00019945312387 -0.00011149818796 0.00052472290852 -6.6792552236e-05 
-8.1239154912e-06 -2.1675357631e-05 0.00054572751531 -0.00056134053668 -0.00060799770528 -0.0005539984966 4.4124155578e-05 0.00045556663313 0.00080281729126 
-0.00021064123899 0.0002746505628 0.00038477581671 -8.065359845e-05 -0.00015111303546 0.00031160404314 -0.0016587838898 -0.0025330295071 0.00015572918515 
0.00041987509768 -0.00038585017514 -0.0005588052179 -0.0003353186263 -0.00051035388532 8.9741368921e-05 0.00055676553741 -0.0010702631064 0.00037462173924 
-0.00043442133139 0.00063603615245 -0.00012054536178 0.000435984824 -0.00051780037528 0.00092810395875 0.0005744923332 -0.0010113184935 0.00051955178558 
0.00082414521221 -0.00075181687843 -9.2095639749e-06 0.00078430323958 -0.00038241558582 -0.00078762890353 -9.4951706702e-05 -0.0007381915372 -0.00011348976985 
0.0010515993774 -0.00060541621357 -0.00039811190343 0.00070246471817 -0.0010139798568 4.1358782053e-05 0.00033777964839 0.00019631329256 0.00027399556572 
-0.00017736995627 -0.00086525045765 -3.9551968729e-05 -0.000142973145 -0.001266279578 -0.00013892607037 0.00016736378475 -0.0012036219816 -0.00047945925632 
0.00081801908193 -0.00063730352284 9.9238909676e-05 0.00077264598886 -0.0013924562046 0.00013015853803 0.00013276712323 -0.00091843990442 9.4381093184e-05 
0.00059420063472 -0.00080925215496 0.00073110646422 0.00091052961538 -0.0013858711761 0.00034703136605 -0.00036212191248 -0.00060587971266 2.3980374453e-06 
-0.0014115204889 0.00028817362378 -7.8550795565e-05 0.00023323116801 -0.00031506363244 -0.00033848251023 0.00013182145277 -0.0010491180273 3.2764843291e-05 
0.00033446927233 -0.001589250437 -1.2113156537e-05 -0.00056430292969 -0.00076386904028 -2.7834189661e-05 0.00013149126644 -0.00077097741642 -6.9136259281e-05 
-0.00026403369714 -0.0002934837996 2.3699568559e-05 4.8683914436e-05 -0.00094614713354 0.00041551156105 0.00017632550077 -0.00088647828068 0.00062583864167 
-0.00018910584409 -0.0016384600211 -0.00018517841499 0.00023230876357 -0.0010111503155 -0.00021561073663 0.00047195608789 -0.0016324217803 0.00035456076099 
-0.00020109061612 -0.0009598181319 2.5556442354e-05 2.2902270847e-05 -0.00076970148602 -3.6350970389e-05 0.00032706443294 -0.0008359355894 -8.9531955439e-06 
0.00035038958715 -0.00084912300577 0.00015296780615 0.00023163905696 -0.00099032807188 -0.00016260938539 0.00048784154656 -0.0012604045132 -0.00067481693875 
0.0005273486234 -0.0010561884383 9.6922204731e-05 0.00018904119959 -0.0014078971106 -0.0008238654994 -0.00014904205604 -0.00093666904836 0.00069395336476 
0.00053110101277 -0.00084384498044 0.00061430768736 0.0004039033241 -0.00063041953648 -0.00016868628769 0.00038070993645 -0.0011806571955 7.9673950905e-05 
9.6195368665e-05 -0.00071400202899 -3.6536090923e-05 0.00020838855203 -0.0010666810732 0.00014873380805 -0.0001567207015 -0.0008827069447 -3.0273125817e-06 
0.00028429829579 -0.00094162949035 1.2665025064e-05 0.00011912484321 -0.0013178819269 5.1831621547e-07 0.00016297155242 -0.00071996332987 -0.00018218725606 
-0.0001793949608 -0.00070882625532 -2.1682686958e-05 -0.00019280251357 -0.00086624649225 0.00011288370428 3.0464448194e-05 -0.00086713166988 -0.00010717374329 
0.0003250090574 -0.00069057324715 -0.00020589335566 0.00035632903053 -0.0012525965302 -1.6398389596e-06 0.00032482108134 -0.00081501506091 -0.00046553678323 
-0.00011604556489 -0.0013963078786 0.00046367442757 0.00033804432776 -0.00070407549557 6.1788904904e-05 6.2352916838e-05 -0.00090138761882 -0.0001911602549 
8.8534620314e-05 -0.00041477453098 0.00024675479585 0.00019528881805 -0.0014309498204 -0.00058268749987 -6.9471059391e-05 -0.00086956403137 0.00015826968072 
4.4788798758e-07 -0.0010625432134 -2.9364727927e-05 0.00040123017271 -0.0010226062835 -0.00035886032207 0.00041962132843 -0.0009386306006 -0.00034803629403 
0.00046295675079 -0.00094099281714 5.3116459329e-05 -0.00028775828707 -0.0011289317322 -0.0001644641595 -0.00029874975703 -0.0012863222075 1.8844500962e-05 
-6.1865324488e-05 -0.0014199039428 -0.00015298006883 -3.3474515582e-05 8.2136054099e-05 -0.00025155957855 -0.00019389218622 1.935189293e-05 0.00074750440537 
-0.00015010329029 0.00013625715065 0.0011568321331 4.5156947797e-05 -0.00050157561697 -0.00028750388195 -2.3198892039e-05 0.00012426254783 0.0010698156448 
-0.00038468362198 -0.00056375929598 -9.174201145e-05 -0.0001058441146 -0.00037924436307 -0.00048445934084 -0.00076171793841 0.00055674838503 0.00052169201014 
0.00021608572891 -0.00054320310214 -0.00057882201887 6.1964271798e-05 -0.00077259163499 -0.00039456725783 -6.841261151e-05 -0.0005274589356 -3.4902877351e-05 
0.0011029731468 -0.00013015090516 0.00016162202894 -0.0003026556205 -0.00080289727876 0.00040419018435 -0.0014397154418 -0.00071733940862 -0.00084154895694 
-0.0025887519795 -0.0011320571868 -0.00031684595423 0.00025379464036 -0.0014498663272 -3.2243152636e-05 -0.00069139294198 -0.00022412376051 -0.00072622986712 
0.00060096376401 -0.001504273462 -0.00010651451316 0.0014819860987 0.00018730254836 0.00025857556203 0.00056079332215 -0.00047339485121 0.00032765082672 
0.00037993879689 0.0011586387102 0.00077280782334 8.8594567272e-06 -0.0013345273914 -4.7397244227e-06 -0.0018585622347 -0.00067114726352 -8.3774432786e-06 
0.00061169447383 0.0002352413938 0.00039531418703 0.00029777796499 0.00049798454386 -0.00014336986204 0.00047314283044 -0.0013791324576 8.1470954113e-05 
0.00038438455792 -0.00080405543922 7.0295211613e-06 0.00071206270899 -0.0010156103258 6.8905756602e-06 0.00050628497275 -0.00071292906061 8.5788875545e-05 
0.00050426033052 -0.00074077006047 0.00030500605476 0.0010008080855 -0.00021814557288 0.0008085061641 0.00071012402626 -0.0012667614018 4.4378317622e-05 
0.00091665781837 -0.0012116815894 0.000135874185 -5.6790227e-05 -0.0016149874568 0.00079398642069 0.00029169766992 -0.0018489467251 -0.0003968460986 
0.00043993687207 -0.0010542750355 0.0010354591526 -1.5403116923e-05 -0.00041197466903 -0.00057901946258 0.00041271722701 -0.0013333783722 -0.00048367327455 
0.00044970780612 -0.00092027401739 0.00066026518834 0.00052682822558 -0.001087515699 0.00056137744651 0.00016059001842 -0.0010297859566 -1.5410286095e-07 
0.0001163335224 -0.0016694111783 -1.2731855945e-05 -0.00018996865999 -0.0015022823297 0.00059981139641 -5.2339905755e-05 -0.00020949235173 -8.2741425482e-05 
0.00080516157736 -0.0018897113895 0.00022912472114 5.8356390014e-05 -0.00054735295379 0.00010301437809 -0.00032076019962 -0.0016861864341 3.2662879656e-06 
-9.4616173762e-05 -0.0011003319581 0.00065936756631 -0.00013613155323 -0.00095139417262 6.00710315e-05 -0.00023188289894 -0.00069690823177 -0.00015153754114 
0.00034304001042 -0.00070435934519 -2.7921011981e-06 0.00028454097406 -0.00085545421434 -0.00020461726135 -8.3846089271e-05 -0.001284347476 -0.00013864945287 
0.00028602758573 -0.0010353621124 -0.00023214097038 0.00044583729338 -0.0010560578393 -2.0576974664e-05 0.00036439150673 -0.00087748155826 -5.9939293149e-05 
0.00012109211086 -0.0011360810424 -0.0001999812065 -1.8104562945e-05 -0.0010773462715 0.00014243547161 -0.0002244303638 -0.00072642361928 -0.00012588384042 
0.00065078132059 -0.00059962066016 -5.1036125884e-06 0.00027166549127 -0.0010773606796 -0.00041754757243 0.00034374212854 -0.0011515014037 -1.5429331465e-05 
0.00023800759615 -0.00078665566067 -0.00017647979077 0.00065349316575 -0.0009576481354 -9.2266626479e-05 0.00015305259877 -0.00072943421651 -1.9523270986e-05 
0.00048432919063 -0.00078771848235 -8.34478762e-05 7.5472522858e-05 -0.0011554690847 6.9078282588e-05 -8.3514436296e-05 -0.0011540030917 -0.00020880539148 
-1.7540540044e-05 -0.00081696902525 -0.00024114448383 0.00024848394306 -0.00083193608578 -0.00021347720063 0.00033869275504 -0.0011411624501 -1.0946615136e-05 
-8.9454498171e-05 -0.00079366793484 -0.00015155355452 -0.00025562818434 -0.0015160115125 -0.00058451259057 -5.8056553344e-05 -0.0010782476054 8.804379685e-05 
0.00041795531037 -0.0011765194676 -8.6021473821e-05 0.00035258827803 -0.00077816522172 -6.2632118902e-06 0.00011330509243 -0.00079622221167 -2.7010546894e-06 
3.8621484036e-05 -0.0010184419316 1.3425764499e-05 0.00058253745763 -0.0013859579804 -6.2739339244e-06 0.00064919851223 -0.0015688259279 0.00024131717653 
0.00056238234671 -0.00079101947936 -1.9626029179e-05 -0.00027453100252 -0.0014726590234 8.8728220396e-05 8.3479993948e-05 -0.00067392796506 0.00014757236679 
0.00030003582612 0.00029898531494 9.8201288733e-06 0.00026286796216 -0.00068885994419 0.00068597709631 0.00012858415912 2.178675279e-05 0.0011133081998 
-0.00054527669841 -0.00087771164058 0.0012248646588 0.00017565014108 -0.00032493060936 0.00010720987676 0.0007584216195 0.00061990474108 0.00081218214849 
0.00042466567872 -0.00018091379764 0.0016931386997 -0.00069891648268 -0.00085923056231 -0.00055580363139 0.00011180637111 0.0015733736822 -0.00098434718012 
0.00012402388791 -0.00011956508576 0.001237076081 -0.00084152424086 3.5369133437e-05 -0.00069057756758 0.00031782307199 -0.00030467048003 4.3671565667e-05 
3.7435965144e-05 -8.525838513e-05 -0.00024086835443 0.00013753349566 -0.00080717664341 0.00065775839002 0.00025906212769 -0.00043239914161 4.0395351788e-06 
0.00082727333849 -0.0002065047339 0.00024049549113 0.0011124417203 0.00011371114675 0.00052529314262 0.00062242463099 -0.00038317677673 0.00014442023742 
0.0001579807435 -5.3392556548e-05 -6.9678142415e-05 0.00098849688818 -0.00092330684999 -0.00014284067365 0.00054117359749 -0.0004213871737 0.0012301497771 
0.00030360518909 0.00013222092791 0.00034311530757 0.00033806052824 -0.00061778677516 3.4256782621e-05 -0.00040998816202 -0.00033606391813 0.0010542765125 
-0.000223966559 0.00041952623225 0.00034205806938 -0.0015160011913 -0.0015643656693 0.0013303894274 -0.0013676282822 -0.00029458180702 6.9613929375e-05 
-0.0017822863696 -0.00025430196797 -0.00043807906898 4.1060215991e-05 -0.00082750663965 0.0012734647224 0.00069578564979 -0.00069334382413 0.00055513240293 
0.00097742031157 -0.00011041276094 -5.5502225494e-05 4.0859746765e-05 -0.00023567844855 0.00010750375471 -0.00038396022414 -0.0015062678356 -0.00020245181013 
0.00063020526309 -0.00033162051702 -0.00071733649371 0.00010761392574 -0.00073712934759 -1.5605334093e-05 0.0011124127658 -0.00036801970525 0.00014472362482 
-0.00084763720118 -0.0002373991007 -0.00014988508413 0.00056455808601 -0.001171703668 0.00059265037593 0.00034486854175 -0.00048259547546 0.00089786448482 
-0.0002428795258 -0.00075122258858 6.3866132338e-05 0.00046429455774 -0.00048443132038 -0.00014613480823 -0.00026327977543 -0.00095536020002 -0.00024725941369 
-2.2262602268e-05 4.1041118038e-05 -0.00091072186403 -0.00019062992645 -0.00116365236 -0.00013125292083 -0.00063580883384 -0.00089256574663 6.155557479e-05 
0.00036421218793 0.00049339578154 -2.0593080227e-05 -0.00069067299638 -0.00089900113768 8.6077295644e-05 2.3286932328e-05 -0.00061689354744 0.00010495033845 
0.00044132796959 -0.00056468244449 -1.4143203653e-05 0.00035931411866 -0.00094673326502 0.00059637023721 -0.00019232557057 -0.00071015890422 -0.00026688114763 
0.00016169352111 -0.00080759982162 -1.2740856587e-05 -2.2481961229e-05 -0.00091757642466 -0.00012373136787 0.00025787994966 -0.00111042555 -7.3537864968e-05 
8.1731557409e-05 -0.00099239736571 5.9279790897e-06 -0.00028128136291 -0.00093762030589 -0.00014611583609 0.00078850856806 -0.00097923896509 -0.00077524544417 
0.00067133540423 -0.0022050046889 -2.5086810918e-05 -0.0011845682258 -0.00223506229 0.00035350521906 -6.7473821363e-05 -0.00079929033718 0.00044082516281 
0.00061684643917 -0.0010199956407 0.00095916034277 0.00019097205646 -0.000964536936 1.2836075117e-05 0.0001362749338 -0.0014303543136 -1.3885732092e-05 
0.00020725163967 -0.0012545849557 -0.00023230587058 0.00057751230844 -0.001443924859 -4.9210304369e-05 0.00024183426689 -0.0014602580461 4.0916928092e-05 
0.00021611219843 -0.00055725173032 0.0001066132962 -0.0004515365821 -0.0010649509587 -0.00059801459572 0.00031010235621 -0.00083129993449 -5.7359335772e-05 
0.00045963403732 -0.00095540042637 -5.5224054689e-05 0.0003371049068 -0.0015388589957 -1.3469122348e-05 -4.7181174833e-05 -0.0013770173063 -0.00021246948166 
0.00035472862644 -0.00097701747629 0.00015600215239 0.00066036815624 -0.001248580391 1.7691746106e-05 0.00041833915898 -0.001373968085 -2.568818154e-06 
0.00014132570766 -0.00169380203 -1.4177739887e-05 0.00063421239564 -0.0008351524166 -6.7008177431e-05 0.00011620903877 -0.0011464683989 -0.00029048201076 
-0.00034367319627 -0.0015474690216 4.2828030868e-06 0.00044177949611 -0.0011788717527 -0.00022123895111 0.00033620990089 -0.0010461300397 0.00023558044218 
-5.635823666e-05 -0.0013683704654 8.0217696373e-05 3.8218528426e-06 -0.00077483442163 -0.00045620275857 -2.8165492633e-05 -0.00087964063813 -1.7404944774e-05 