# vtk DataFile Version 4.1
vtk output
ASCII
DATASET UNSTRUCTURED_GRID
POINTS 1274 float
0.513567 0.552448 0.0379538 0.469855 0.650368 0.105117 0.488606 0.596228 0.268458 
0.495089 0.586755 0.0983774 0.424033 0.755078 0.0323158 0.424648 0.76798 0.119995 
0.475832 0.636777 0.212918 0.459529 0.669251 0.268648 0.394445 0.843851 0.0586858 
0.398655 0.812146 0.165266 0.446464 0.697986 0.214489 0.433275 0.737679 0.265757 
0.363371 0.901494 0.0319694 0.34428 0.966929 0.052549 0.381602 0.87774 0.146375 
0.395256 0.843306 0.231724 0.345797 0.956456 0.259995 0.314598 1.03767 0.0387204 
0.391319 0.912682 0.0864421 0.448593 0.898353 0.110069 0.332715 0.995031 0.130134 
0.409031 0.914162 0.218455 0.310595 1.0373 0.265121 0.352285 0.928821 0.187633 
0.282171 1.10049 0.0485542 0.32834 0.986928 0.200886 0.28678 1.10781 0.260298 
0.258325 1.16105 0.0336643 0.357668 1.11455 0.103106 0.302195 1.06815 0.109114 
0.289849 1.25017 0.0382188 0.303191 1.04459 0.200263 0.283914 1.09965 0.172156 
0.333634 1.25429 0.092255 0.385881 1.15651 0.0379572 0.27592 1.14756 0.110129 
0.422034 1.14884 0.106117 0.261053 1.14966 0.208281 0.340165 1.10603 0.211177 
0.218816 1.25582 0.0332148 0.320678 1.18454 0.0539524 0.319825 1.15593 0.173601 
0.245072 1.19823 0.164345 0.287359 1.18253 0.26484 0.23944 1.22123 0.093295 
0.372909 1.23004 0.0356631 0.236684 1.2299 0.236256 0.216066 1.25582 0.149216 
0.540515 0.470797 0.0302096 0.611527 0.295665 0.0938519 0.595669 0.358404 0.122485 
0.597122 0.347111 0.198672 0.576393 0.38815 0.2665 0.610795 0.312699 0.262293 
0.541143 0.468927 0.209679 0.509167 0.556734 0.218305 0.603552 0.328515 0.0358989 
0.566531 0.417851 0.159152 0.484085 0.62385 0.0378755 0.607926 0.473643 0.0458413 
0.546131 0.474621 0.0985181 0.54984 0.447489 0.268474 0.565262 0.570852 0.262773 
0.527683 0.511809 0.159737 0.551267 0.667957 0.0308607 0.4456 0.710962 0.0790398 
0.517661 0.697256 0.106771 0.472026 0.752539 0.17835 0.551712 0.547697 0.102232 
0.523039 0.65726 0.266704 0.446467 0.69665 0.145362 0.415364 0.776566 0.214578 
0.501027 0.679933 0.169388 0.555157 0.576681 0.168105 0.494389 0.779084 0.0922882 
0.535963 0.759641 0.146405 0.459554 0.813723 0.036373 0.508519 0.723442 0.0397542 
0.484699 0.816989 0.150773 0.437454 0.83513 0.112837 0.36499 0.893096 0.269731 
0.49968 0.768659 0.260788 0.538894 0.616591 0.219052 0.563608 0.746883 0.22018 
0.468191 0.814789 0.213641 0.507379 0.704586 0.226057 0.460021 0.888433 0.0399278 
0.520372 0.852477 0.035617 0.536167 0.789941 0.0326232 0.454123 0.87481 0.177577 
0.495973 0.848845 0.0949467 0.464004 0.869234 0.260663 0.438779 0.802605 0.269008 
0.417706 0.951259 0.0373628 0.373672 1.08845 0.0325886 0.466252 1.00362 0.0331274 
0.401166 0.995708 0.0953432 0.416559 0.947123 0.151189 0.469214 0.963773 0.091626 
0.485367 0.939806 0.263296 0.41975 0.971667 0.261479 0.535356 0.981837 0.2689 
0.461295 0.949917 0.203483 0.384194 1.02288 0.0323967 0.365733 1.05321 0.0847114 
0.463013 1.03156 0.0900621 0.362991 1.06212 0.158292 0.395838 1.00385 0.196769 
0.441907 1.0503 0.264238 0.377342 1.02833 0.267487 0.483268 1.00219 0.236939 
0.457988 1.13478 0.038542 0.470553 1.08234 0.123041 0.427704 1.04108 0.139415 
0.360704 1.08944 0.269156 0.52723 1.17751 0.175884 0.490135 1.10108 0.267884 
0.407692 1.08742 0.213481 0.430154 1.13268 0.264219 0.445546 1.11926 0.167063 
0.358649 1.15956 0.260112 0.511361 1.1864 0.0381527 0.498964 1.14591 0.12045 
0.437944 1.20458 0.034193 0.370075 1.20047 0.101107 0.381378 1.13249 0.165555 
0.338808 1.23596 0.260951 0.453329 1.16654 0.207925 0.403038 1.20575 0.222431 
0.46955 1.1901 0.26612 0.487761 1.25437 0.0362705 0.312935 1.21158 0.137281 
0.460972 1.24821 0.22562 0.300388 1.21201 0.203878 0.475219 1.21062 0.16998 
0.373685 1.22641 0.164088 0.639329 0.232146 0.180169 0.563783 0.413622 0.0317375 
0.660124 0.192724 0.0575469 0.660227 0.287902 0.213286 0.640281 0.240857 0.263508 
0.668799 0.1748 0.207413 0.64237 0.224302 0.115848 0.630845 0.404006 0.036347 
0.591767 0.42199 0.0892911 0.527298 0.509128 0.265844 0.606313 0.485584 0.26322 
0.617258 0.291403 0.158657 0.639872 0.377043 0.246732 0.614293 0.459377 0.135656 
0.588746 0.545746 0.0375218 0.660773 0.422104 0.100964 0.534699 0.63516 0.131193 
0.605689 0.527716 0.147088 0.576696 0.52321 0.212068 0.593085 0.432546 0.220385 
0.613285 0.622944 0.266297 0.603791 0.7165 0.0390333 0.55542 0.608932 0.0643647 
0.570325 0.73236 0.0991655 0.566786 0.696485 0.158256 0.600255 0.708681 0.268226 
0.592572 0.633248 0.175448 0.645616 0.638091 0.211633 0.571681 0.671104 0.224542 
0.597721 0.757015 0.159931 0.587369 0.665879 0.0954537 0.63941 0.785971 0.0390317 
0.562192 0.794335 0.091005 0.540787 0.81283 0.190002 0.545688 0.830873 0.261831 
0.616596 0.77311 0.265258 0.515341 0.871812 0.211602 0.625747 0.707248 0.201694 
0.600598 0.819383 0.221327 0.585319 0.835976 0.0347554 0.561176 0.85777 0.0930869 
0.565872 0.907677 0.0397019 0.50406 0.94216 0.0315438 0.552282 0.908312 0.260437 
0.598792 0.965661 0.265548 0.52868 0.861593 0.146367 0.506396 0.921234 0.170757 
0.536219 1.00118 0.0517048 0.523221 0.914061 0.104554 0.473081 1.05763 0.190844 
0.469497 0.994409 0.155417 0.538054 0.987604 0.137353 0.518565 1.04494 0.269178 
0.570533 0.943515 0.192217 0.436691 1.06473 0.0347798 0.538718 1.12291 0.0335701 
0.573402 1.06276 0.0351738 0.504272 1.06232 0.0328709 0.552286 1.10624 0.0954811 
0.522601 1.04884 0.104061 0.542409 1.00724 0.20899 0.503227 1.12396 0.204897 
0.539253 1.2325 0.0892776 0.57481 1.21013 0.032288 0.564401 1.17505 0.122876 
0.52278 1.08855 0.1533 0.605191 1.08569 0.268672 0.540708 1.23619 0.159353 
0.534205 1.21063 0.23766 0.567458 1.12786 0.1795 0.557144 1.07162 0.214935 
0.553804 1.13507 0.259468 0.640464 1.20535 0.0424363 0.622711 1.20765 0.109842 
0.465558 1.21318 0.100956 0.648035 1.234 0.221454 0.596031 1.1967 0.186241 
0.773192 1.16526 0.205736 0.678933 0.131007 0.0398688 0.693248 0.119655 0.11482 
0.721562 0.0322022 0.193212 0.682126 0.133991 0.265509 0.697622 0.0950427 0.183738 
0.636826 0.261759 0.0387323 0.696767 0.31508 0.0396595 0.701744 0.225537 0.151038 
0.70477 0.265496 0.267352 0.64013 0.404926 0.173432 0.695544 0.199652 0.267448 
0.679218 0.326317 0.266702 0.663515 0.336193 0.138179 0.678107 0.457005 0.0405521 
0.655511 0.493171 0.096661 0.650958 0.354075 0.077502 0.685069 0.466166 0.157046 
0.650718 0.459395 0.216784 0.682354 0.278573 0.104587 0.729962 0.411768 0.19821 
0.691242 0.353709 0.201615 0.6122 0.642878 0.0351629 0.659879 0.524038 0.0349323 
0.635871 0.557883 0.0895299 0.595795 0.600124 0.119742 0.648467 0.604891 0.156766 
0.664294 0.681983 0.26213 0.639786 0.544141 0.269081 0.687755 0.58063 0.207513 
0.617678 0.577161 0.209566 0.67447 0.545014 0.150312 0.678737 0.514404 0.206523 
0.630198 0.713313 0.122773 0.658385 0.651766 0.0928912 0.697932 0.571585 0.097729 
0.709385 0.625198 0.140681 0.716988 0.645966 0.206567 0.662352 0.820623 0.268702 
0.665874 0.670131 0.160543 0.624536 0.801078 0.117289 0.648316 0.874288 0.0391017 
0.689759 0.759337 0.079419 0.707703 0.699995 0.0856187 0.681158 0.761556 0.149013 
0.637952 0.773431 0.203175 0.697221 0.714629 0.205192 0.614416 0.86534 0.265677 
0.582172 0.870429 0.183418 0.615101 0.966773 0.037251 0.668541 0.982772 0.0765912 
0.631922 0.867049 0.106562 0.644604 0.925307 0.0880848 0.587367 0.905595 0.124649 
0.610119 0.96521 0.138854 0.635547 0.982477 0.209857 0.678956 0.846783 0.14788 
0.635559 0.920126 0.233712 0.643651 0.861519 0.206373 0.632244 0.914127 0.169098 
0.631327 1.10635 0.0300631 0.642316 1.03731 0.0388212 0.694875 1.08968 0.0358777 
0.575131 0.954643 0.0904747 0.59577 1.0186 0.0954828 0.667941 1.04087 0.115217 
0.578642 1.02878 0.260359 0.614233 1.02304 0.162015 0.672732 1.02888 0.183463 
0.6165 1.08773 0.0906568 0.623098 1.14121 0.138194 0.697397 1.16259 0.0370853 
0.595561 1.15197 0.0645578 0.582026 1.07486 0.145785 0.624294 1.0541 0.217071 
0.742129 1.12978 0.0835927 0.636901 1.13093 0.223691 0.661369 1.09011 0.167746 
0.603641 1.19352 0.26361 0.75004 1.20957 0.033559 0.792466 1.17885 0.10198 
0.690786 1.16786 0.106126 0.673721 1.19613 0.168653 0.677344 1.18546 0.261488 
0.721526 0.0828183 0.0341654 0.753303 0.120783 0.0773048 0.718073 0.0493022 0.120402 
0.784094 0.0577374 0.127494 0.723595 0.0411279 0.262294 0.735866 0.105116 0.244072 
0.707635 0.241284 0.0350558 0.749656 0.180212 0.0391972 0.768082 0.266082 0.030452 
0.735733 0.178786 0.110656 0.727024 0.156085 0.172424 0.755992 0.166288 0.263424 
0.774013 0.229436 0.154607 0.769976 0.241435 0.263001 0.732066 0.208891 0.212732 
0.703742 0.390757 0.0363952 0.766192 0.32791 0.0314003 0.721583 0.333152 0.103319 
0.747429 0.250695 0.0926363 0.734255 0.417292 0.0925059 0.765224 0.373019 0.128271 
0.704547 0.387744 0.141692 0.748676 0.318775 0.262883 0.733016 0.280788 0.197312 
0.697079 0.420921 0.260497 0.724782 0.510731 0.0888977 0.750386 0.462986 0.0378084 
0.795629 0.482038 0.086738 0.755098 0.467729 0.137002 0.791291 0.418226 0.171443 
0.676157 0.491188 0.266652 0.804702 0.511678 0.264176 0.772656 0.398162 0.26058 
0.742007 0.480519 0.245414 0.717891 0.546953 0.263651 0.670636 0.597188 0.0391154 
0.693169 0.663717 0.0315322 0.738354 0.530989 0.176692 0.761944 0.579093 0.12256 
0.678695 0.612152 0.2674 0.753507 0.58449 0.21636 0.743282 0.620358 0.26749 
0.673437 0.723444 0.0313713 0.747266 0.746227 0.111585 0.757617 0.690099 0.0385047 
0.728324 0.753547 0.0312097 0.74731 0.653892 0.0970394 0.740473 0.691408 0.261132 
0.689164 0.814102 0.208732 0.727598 0.690113 0.147424 0.751957 0.743613 0.178886 
0.682178 0.747517 0.269539 0.702238 0.932136 0.0399803 0.718015 0.850687 0.0346082 
0.681911 0.82246 0.0843269 0.694578 0.885726 0.0949965 0.74054 0.808409 0.159129 
0.739011 0.835274 0.260086 0.727504 0.765581 0.233572 0.681285 0.883531 0.265521 
0.712363 0.87553 0.208213 0.68808 0.94866 0.268914 0.718004 1.01768 0.0398216 
0.726251 1.06658 0.0891171 0.728792 0.949302 0.107481 0.689569 0.94383 0.205845 
0.672085 0.974277 0.139008 0.692342 0.916217 0.149801 0.731471 1.00666 0.154721 
[...]
POINT_DATA 1274
FIELD FieldData 10
VELOCITY 3 1274 double
0.00046567452255 -0.0013048510081 5.3341956728e-05 0.00029529307111 -0.00064904115076 -0.00029136674843 0.00061726541046 -0.0014995231647 8.7186775752e-06 
0.00063086007871 -0.00021755425937 -0.0018735151322 0.00060579901627 -0.00097823749477 -7.0921856588e-05 0.00037633315055 -0.00057401757021 0.00030315566627 
0.00012682987935 -0.0003044260685 -0.00053550982483 -0.00035361869512 -0.0011666993227 -9.7541992052e-05 0.00035706332635 -0.00087315026826 -7.1995465307e-05 
0.00015749110054 -0.00060317229096 0.00032225157842 0.00037276411927 -0.00055374687044 0.00065823468412 0.00042027806903 -0.0010698829525 1.8111813371e-05 
0.00033989487292 -0.00090887822238 -6.338875552e-05 0.00047379526631 -0.00099064621623 0.00049453652371 0.00020626360274 -0.00066718837298 -3.4231221226e-05 
0.00029562402018 -0.00077612021155 4.1343244629e-05 0.00030869432584 -0.00070487001153 0.00019116669868 0.00042331845794 -0.0010440641457 1.3956401039e-05 
0.00079550969374 -0.0010202880468 -0.0001901446788 0.00070709458873 -0.00065950025195 0.00015834602401 0.00039221223846 -0.0010040487579 0.00029369454692 
0.00017686615228 -0.00076001460222 0.0001334595791 0.00022643972378 -0.00059117891654 -0.0001741618672 0.00031060414276 -0.00065061552323 -0.00011322358334 
0.0004016781148 -0.00099061411013 -0.00037790386548 0.00026248333416 -0.00074622324329 0.00017162004449 0.0002305920561 -0.00060099571284 2.454843672e-05 
0.00050611961418 -0.0012179758959 8.3995001208e-06 0.00045961312846 -0.00096057530439 -0.00060399692889 0.00030486638142 -0.00076374251116 0.00011805812206 
8.0501485184e-05 -0.0014896548825 8.3939332566e-06 0.00036641959615 -0.00071664874314 -2.057518411e-05 0.00031193324664 -0.00081183810337 -0.00015646149066 
0.00044845370545 -0.0011173792532 -0.00030181264901 0.00080427687919 -0.0010285956324 0.0004221203272 0.00028716306382 -0.00073585472309 1.0031662057e-05 
0.00042300171473 -0.00090590351844 -0.00013017689715 0.00032750669931 -0.0007600400254 -0.00016860908793 9.5692716052e-05 -0.00085690705627 -0.00010492483753 
0.00019108156642 -0.00043474547414 5.2567937538e-06 0.00056641784553 -0.0013083593535 -0.00023024170447 0.00027609778107 -0.00069601900993 5.3411056568e-05 
0.00028416918626 -0.00066773405847 -6.0523666274e-05 -4.2598562024e-05 -0.00059294193339 -1.692169405e-06 0.00032982435358 -0.00078542674749 -0.0002683152613 
0.00048151538301 -0.00112294083 1.6496249507e-05 0.0001538857775 -0.00036646473951 -3.6066592512e-05 0.00030219091204 -0.00072766882687 -0.00031255999289 
-9.8043058793e-05 0.00041122911726 5.6660730149e-05 -0.0013488343958 -0.00017301246243 -0.00082193357885 0.00015426394222 -0.00044294141181 0.00077174836424 
0.00024734229674 -0.00079432063237 0.0007994139272 0.00050241272153 -0.0024563937367 -0.00090517151479 0.00070132090509 -0.0017921201973 -5.9512034501e-05 
0.00052400288572 -0.0010057697149 -0.00045185761803 0.0005491591184 -0.0013496935228 -0.00078372650732 0.00011450820884 -0.00030600893727 -1.1659538312e-05 
8.9348504918e-06 0.00045847843934 -0.00076960135865 -0.00015063042875 -7.6388305208e-05 -2.1367910969e-06 -0.00076721885639 -0.0010640119053 -0.00057182484316 
-8.7385919551e-05 -0.00024666010035 -0.00021525403842 -3.8449002044e-05 -0.00074347231399 0.00010797765015 -0.00028653846383 -0.00075898301516 -9.3180470961e-05 
0.00018528234319 -0.00051723920092 0.00023399958198 -0.00045101534571 -0.0012242642241 0.00035052747536 7.4365829373e-05 -0.00016017172824 0.00035927232561 
0.0001815803454 -0.00067270712148 0.0006537563815 3.5549031456e-05 -0.00076724645484 -0.00043954087538 0.00030957754682 -0.00030208325733 0.0012256209003 
0.00011256022661 -0.0016972042354 0.00021982203215 0.0001282502729 -0.0002395061033 -0.00075133544257 0.00047952649528 -0.00091652899541 0.00016405498842 
-0.00012559461301 -0.00035759659918 -0.00043240617511 0.0010933031649 -0.00062844789736 0.00021661546065 0.00022385816843 -0.00055848425922 -0.00010035167147 
0.00038428114181 -0.0016882134178 0.00063756295788 0.00035310118125 -0.00083396095893 0.00010678743721 0.00043329690511 -0.00094280388942 0.00016483935714 
0.0004689082567 -0.00088900239229 0.00010658880819 1.5168563209e-05 -0.00051059045999 0.00022491543703 0.00026928109757 -0.00072724252704 -2.3615108611e-05 
0.00013303010333 -0.00054411062364 -0.00026099767533 0.00020465844211 -0.0011338788934 0.00041015473891 0.00033707294611 -0.0012555609298 0.00021226253052 
0.0001842652982 -0.00072038808766 3.3866110114e-05 0.00050922616994 -0.0016503850343 -0.0012547545129 -0.00012825101841 -0.00080888954021 -0.00016968011011 
-0.00019759369157 -0.00098721491515 0.00029697697286 9.0271036641e-05 -0.00077413296347 -0.00043318872688 3.2201873968e-05 -0.00094636051 2.0789028298e-05 
0.00043832694523 -0.00089233682858 -0.00027968912024 -0.00040817309181 -0.00086206103867 8.0234086849e-05 0.00018679153408 -0.00092527869116 5.6022635446e-05 
0.00042444550384 -0.00053623379736 1.0505455171e-06 0.00021303119348 -0.00087632640648 1.3798891731e-05 0.00047670486066 -0.00085259643456 1.3836253774e-05 
0.00066772566929 -0.00076353306616 0.00027285386222 0.00061530792355 -0.00089871401998 0.00020860228141 0.00065644374832 -0.00054695590598 0.00012565609127 
4.9230083984e-05 -0.00095287917345 0.00064831127048 0.00040294006045 -0.0006979270406 -0.00010967770288 0.00032202958002 -0.0010571967771 -2.2300496417e-05 
0.00057934247868 -0.0018557879206 0.00035762499913 0.00037525021155 -0.0011205476977 -1.9307534549e-05 0.00025800225615 -0.0010827810003 -5.371094908e-05 
-0.00040061018601 -0.00075360149493 4.1007007073e-06 0.00020969169541 -0.0007709605212 -0.00012456765805 0.00028696193281 -0.00072167902126 1.9853199989e-05 
0.00028078789462 -0.0005647761265 2.4393765018e-06 0.00012978877629 -0.0008902381035 0.0002643075737 -3.0727977071e-05 -0.0011122841222 0.00045596641097 
0.00073969626205 -0.0010628769721 -8.905347448e-05 -8.0444783129e-05 -0.00064610394712 -0.00029511592892 0.00034803598753 -0.00097549974423 0.00059950064714 
-0.00017396673323 -0.00087840844177 -8.6263757557e-06 0.0005600825424 -0.0010957173709 0.00012638538115 0.00036024599587 -0.00089312106026 3.3067592333e-05 
-3.7126261129e-05 -0.0008493687618 8.886339665e-05 0.00039736115214 -0.00079850361676 -9.4886014539e-06 0.00011790721708 -0.0009934851051 0.00020817732491 
-0.0001869182772 -0.0008908095294 -2.9428226936e-05 0.00036942367702 -0.00062966647856 -8.8466963842e-05 0.00037544703705 -0.00091700667802 0.00011479251476 
0.00057984842534 -0.00085264792228 -2.1730202251e-06 0.00021293246703 -0.0011864696819 0.0001915154842 0.00014451120954 -0.00077616130571 -0.00037022371073 
9.0911796074e-05 -0.00081904519085 5.2462748673e-06 -5.7025689562e-05 -0.00093985626326 0.00011355248126 0.00033579012621 -0.00079757873502 0.00077823075409 
0.00029735759675 -0.00070244548909 -1.9480980448e-05 0.00036602971961 -0.0006167233972 -8.4411726697e-06 0.00031098318561 -0.00072556005946 -3.7826967671e-06 
0.00034442468923 -0.00073685330049 -0.00013679079728 3.6412506811e-05 -0.0007089711113 -6.060929632e-05 0.00028685040337 -0.0011723629293 0.00011413707658 
0.00032470250878 -0.001664077136 0.00042590355713 -9.8862920684e-05 0.00029533679338 0.00044704103803 -0.00020865718158 0.00036061418937 -0.00014785554265 
7.0772140902e-05 -0.00027453842707 0.00048944216343 -0.00069803340388 -0.00073702294361 -0.00051047857492 -0.00011623803474 0.00032657305755 0.00050292145544 
-6.6682002345e-05 5.7925869936e-05 0.00013125480088 -0.00030810576492 0.00046837874018 0.00028355560128 -0.0019162061392 -0.0013993453807 0.00023742220656 
0.00059504736115 2.2553698829e-06 1.3869712113e-05 0.00028558540463 -0.00075245987569 6.8961870469e-05 0.00045328809303 -0.00094663740875 -0.00010345471373 
9.5307204498e-05 0.00097644850986 -0.00052978601057 0.00064002106583 -0.00014055139167 0.0010972115698 0.00093783057939 -0.0010798117321 0.00021668604018 
0.00057989819302 -0.00063127331677 -1.2761372379e-05 0.00058181415927 -0.001193851131 -0.00013404508068 -0.00033174829973 -0.00080409664387 0.00041574815987 
0.00045595017204 -0.00084895386209 -0.0007533317438 0.00062986743919 -0.00068086789242 0.00040847695547 -0.00048101106545 -0.00042859851416 0.00055815128495 
-0.00020899502967 -0.00066040618812 4.5727120279e-05 -0.00015563550081 -0.0011583806884 6.5826099835e-05 -2.511117072e-05 -0.00095867219945 -0.00049649387425 
0.0001336609365 -0.00045126102709 -0.0001080936941 0.00071402057193 -0.0013776738982 0.00019123885538 0.00037248548018 -0.0010701213797 6.3822580105e-05 
0.00051855741268 -0.00076365436961 0.00062867853508 0.00094564734 -0.001979048306 0.00025973151132 -0.00021257581772 -0.00059601847393 0.00012940976202 
-0.0013092974506 0.001039740846 -1.027928876e-05 3.9478185236e-05 -0.00047876608953 -0.00041994249544 0.00018069916499 -0.001125219575 -2.6717904839e-05 
0.00013566342228 -0.0012302077609 0.00037106940154 -0.00069904519684 -0.00053824265575 -8.2949122884e-05 0.00070715956658 -0.00085893716163 5.8365297618e-05 
-0.00044279860325 9.2389916855e-05 -5.0653605625e-05 -3.7923524723e-05 -0.00064803563883 0.00043849477941 9.6062635438e-05 -0.00057062828369 0.00048055527978 
9.6224793573e-05 -0.00096637679496 -0.00032892415018 0.00021370957535 -0.001022760417 0.00012406428558 0.00019883425191 -0.0011071249472 -1.6881433815e-05 
7.3311887521e-05 -0.0010404328853 -9.3027226999e-05 1.6730549354e-05 -0.00088409807259 6.4513321881e-05 0.00011241479678 -0.00080589546904 -6.1911022699e-05 
0.00034683706971 -0.000854074982 0.00011414684219 -0.00012047415486 -0.00051147186241 5.3911354582e-05 0.00043660352811 -0.0013437494819 -0.00029824366575 
0.00034951188653 -0.0012041355057 0.00056092845621 0.00049761421325 -0.00089534879061 -0.00040904168005 0.00013247246872 -0.00084620335182 0.00061284259598 
0.0005026136489 -0.0008468872653 0.00056184112995 0.00019038386761 -0.00068253083301 -0.00029605494255 0.00029674191679 -0.00090870220402 -3.9982506861e-06 
0.00014604989296 -0.00061917879724 6.3946897837e-05 0.00018018779213 -0.00095092285982 7.5634946101e-05 0.00014578463514 -0.00073136557771 -1.9725374769e-05 
0.00019737955108 -0.0012369586498 -1.1982203812e-05 0.00023643422496 -0.0014856353873 -3.3721225367e-05 0.00024564553881 -0.0010146659635 -0.00012159505591 
-0.00030926078283 -0.00084363082201 -0.00027857012271 -0.00017598364415 -0.0007483790895 0.00012217762932 3.5834453745e-05 -0.000785551102 0.00015197277169 
0.00034527779841 -0.00089218880395 -7.3177542894e-05 0.00046070456193 -0.00089629768463 2.3363958224e-05 0.00041493430786 -0.00096118687159 -9.7134232256e-05 
-2.5617182694e-05 -0.0014781729662 0.00015765356366 7.0218411193e-05 -0.00088033341842 4.4955298258e-05 0.00041525114282 -0.001023174003 -9.2696894329e-05 
0.00013504687712 -0.00053206299664 -0.00011759839365 0.00010373008342 -0.0012801474202 -0.00070280081732 -4.8802386729e-05 -0.00074755398219 8.0476383558e-05 
0.00026989191839 -0.00071902901871 -1.7860193753e-05 0.00049242574802 -0.0012375453683 -0.00030121488641 0.00056472118995 -0.0012970445132 -0.00032085044588 
0.00041241596693 -0.00089444430068 9.0290057526e-05 0.00039956005475 -0.00092187598561 -6.2826340884e-05 0.00038753881916 -0.00092301907532 -4.3264677667e-05 
5.6918128485e-05 -0.0013303024397 1.8087721542e-05 -1.1434799462e-05 -3.7098029659e-06 -0.00017531083937 -1.8854457212e-05 -0.00021001911818 0.0005652665301 
7.7474879519e-06 2.1928315894e-05 0.0002627815195 -0.0001718492132 8.430863314e-07 -5.5744073076e-05 -1.0621198802e-05 0.00015129983177 0.0010558828335 
-0.00011292062144 -0.00045115463308 0.00012235937373 -0.00083379219993 -6.1664361057e-05 -0.00041376877791 -0.00068402965726 0.00047317215058 0.00050477725573 
0.0002302229619 -0.00084657441888 -0.00024618780273 -8.2070288065e-06 -0.00084322252383 -7.3680743806e-05 0.00018757319998 -8.2036116877e-05 -3.6615609145e-05 
0.0027525582027 -0.0003743696658 5.4095902602e-05 -0.00086042594537 -0.00058855096293 0.00066088214203 -0.00060111247645 -0.00074923229203 -0.00083285308142 
0.00082090345723 -0.0007315931396 2.2787332544e-05 0.00051158647497 -0.00086248230307 0.00023058397272 0.00046231219999 -0.0010044683412 -0.00014528925503 
0.00097115964967 -0.0029558518495 0.00028257858607 0.0015226996224 0.00013444805513 0.00034552651588 0.0012159671758 -0.00060333267075 0.0009649297124 
0.00052183876308 -0.00013138134448 0.00022722596881 0.00029468190232 -0.00068435911365 0.0001081173458 -0.00031881276106 -0.00069432933452 6.3351238447e-06 
0.00022631915657 -0.00062167181191 0.00026446921434 0.00012024387094 0.00011028911535 -0.00020701875248 0.00019532458759 -0.0018131468605 -0.00020289415364 
0.00024906519004 -0.0013423470808 -4.706097873e-05 0.00085452899476 -0.001037055961 -7.9623968885e-06 0.00027552091158 -0.0013279914333 5.3374840117e-05 
0.00018220699199 -0.00072100179922 0.00026286908458 0.00096206969692 -0.0004506129129 0.0006984520779 -0.00065688262135 -0.0018369824608 -0.00020682769957 
0.00062341464821 -0.0012056884399 0.00046797011828 -4.9106168973e-05 -0.0013854400281 0.00049276841988 0.00048942713826 -0.0025713672399 -0.00091278006647 
-5.7369498677e-05 -0.0010164264747 0.00020566646743 -0.00014642451499 -0.0010918007595 0.00037141468522 0.00082010533597 -0.0014992314329 -1.2711412265e-05 
-6.1981481378e-05 -0.0014940421907 0.00029261917319 0.00042712967365 -0.00080427294598 0.00024962554017 0.0003401231425 -0.00098417319083 -3.2229830441e-05 
3.3331832699e-05 -0.00080766145207 0.00013663938847 -0.00072013876466 -0.00095315916038 -0.00064036864645 5.0074213797e-06 -0.00033533558985 0.00011231591544 
0.00065913464954 -0.0024382937747 0.00041940152674 0.00039545590686 -0.0016565303978 -0.00034351665133 0.00046169052747 -0.0012261204484 -3.9388126761e-07 
-0.00018831077471 -0.00088646777233 0.0005783467577 0.00028852239464 -0.0013485636 -1.8673950418e-05 -5.9152118554e-05 -0.0010516313004 0.00019224086114 
0.00095706364491 -0.00062306215728 0.00019493377638 0.00050201511708 -0.00070509305184 -0.00029926907519 0.00038663598691 -0.0011822116491 -0.00016977793657 
1.4303490574e-05 -0.00082637369312 -0.00025848433491 0.00041625795458 -0.0012434552473 -9.9999695746e-05 0.0009713055965 -0.0011293375706 -1.4833355953e-05 
6.4750675971e-05 -0.0012441214978 0.00026142443592 0.00023516056764 -0.0015694608229 -0.0013611636781 -0.00015386294101 -0.00067201090053 7.3013225217e-05 
0.00057605092626 -0.00070316196976 -1.7250249794e-05 0.00019736774699 -0.0012513745869 -0.00054088080645 0.0001924315335 -0.0011552229044 -4.1660482274e-05 
6.4705719058e-05 -0.00088368203645 -0.00015336653822 0.00080156432672 -0.0011520682631 -0.00010181296123 0.00061149865129 -0.00065865107121 -9.2492681795e-06 
0.0002548324388 -0.00093165572365 -0.00029868975105 -1.3456247665e-05 -0.0012680241122 0.00025028782566 0.00034084580716 -0.0012775083412 -0.00037118476802 
0.00016980279091 -0.0011530241238 -0.00030093698893 0.00028357547658 -0.0011110956603 2.7536407538e-05 0.00064849928194 -0.0011360421917 -1.3506161207e-05 
0.00028788984609 -0.00095993214234 -6.1815255629e-05 -8.1980905185e-05 -0.001464120405 -0.00043181064035 -4.5551868202e-05 -0.00091181041914 -1.2453433831e-05 
0.00048275630837 -0.0010079858488 0.00024383698255 0.00062209855905 -0.00098483797683 0.00021559368749 0.00012479989975 -0.0010944958295 0.00014713511293 
0.00014443321985 -0.00070197572794 -1.3900617274e-05 0.0006562651902 -0.0012419157594 1.931602693e-05 0.00062060149792 -0.001282535979 0.00056250249575 
0.00051442623066 -0.00077722406245 -4.1446000549e-05 0.00048243858357 -0.0010379718492 6.0377563447e-05 9.6100295486e-05 -0.00068875345622 0.00043212909118 
0.00032010297412 0.00017619842677 9.9325689069e-06 5.1662702712e-05 -0.00083792700037 0.00043348153763 9.0177640214e-05 -0.00018496639154 0.0013088960599 
-0.00049747409182 -0.00084921359179 0.0014405553044 0.00011517407021 -0.00020236812733 -7.5208202254e-05 0.00051170118207 0.00050275324476 0.00065823423418 
0.00041850635585 -0.00021034876063 0.0011674532038 -0.00081020726623 -0.00087472469156 -1.2060749014e-06 0.00017876948611 0.0015980107067 -0.00095133389713 
0.0002685494454 -0.00029966322251 0.0011230575592 -0.00053829158847 2.2666808244e-05 -0.00059510256728 -0.00024476365402 -0.00057533012568 6.5783727887e-05 
0.0012708751864 0.00045243901214 -0.00020723003014 0.00043306748714 -0.00062455777923 3.1953584549e-05 -0.00016952260836 -0.00034149920414 0.00020420615107 
0.00079160930085 -0.00025562422291 0.00034161188727 0.00035949986994 -0.0010055301054 0.00087633905695 0.00071485790096 -0.00039422352092 -8.6240790991e-05 
-0.00020308102764 -0.00030787966465 5.0601608292e-05 0.001204420726 -0.0010791170772 8.5135426719e-05 0.00082241534351 -0.00061746472821 0.00041410030915 
0.00064849821868 -0.00053468807614 0.00025455506785 0.0007515131473 -0.001174544459 8.5968892723e-05 -0.00017890264044 -0.00014231993217 0.00093357427651 
-0.00028226027232 0.00070989423834 -1.6280054917e-05 -0.00067931731623 -0.0017287483791 0.0012368048804 -0.00049433694408 -0.0005974152779 -5.7548913494e-05 
-0.00094501152193 -0.0028033886093 0.0011820800588 0.00057725186798 -0.0007158123527 0.0013501437965 0.0007932549047 -0.00079600653614 0.0014748934738 
0.0014873191583 -0.00055126805551 -0.00011624618229 -0.00078397479823 0.00012055458562 0.00020829442984 -0.00058142725968 -0.00064067779075 -8.7939948532e-05 
0.00058937391283 -0.00032129834851 -0.00048216630821 -0.00054540261741 -0.00058928543945 -1.6231857716e-05 7.3357274399e-05 -0.00087960403121 -1.4134875362e-05 
4.1316669849e-05 -0.00072371378087 0.00046244469493 0.00038116109009 -0.0015022870793 0.00020955043453 0.00026847337945 -0.00076919961811 0.00021559190045 
-0.00033565768279 -0.0013506505472 2.5146845937e-05 0.00016247078625 -0.00094455096324 -7.0405260668e-05 -0.00044244811378 -0.00098897240108 -0.00014466051753 
-0.00015016400689 -0.00069294405147 5.2528721943e-05 -0.00072578528686 -0.0010135062419 -0.00042978209385 -0.0002374713143 -0.00086004800372 -0.00030300817527 
-5.0560669593e-05 -0.00077739816838 1.5153227091e-06 -0.00028353413131 -0.00050041619233 -0.00031242798567 0.00027076055087 -0.00085820434969 7.4641542313e-05 
0.00026031544694 -0.00090334489302 -5.4804834444e-05 -0.0001765521375 -0.00090021982169 -0.00010046503037 0.00014235706289 -0.00077971964559 0.00048517699207 
-0.0006762721693 -0.0011835774503 6.3743299936e-06 0.00021913164569 -0.00071890727606 7.8703308547e-05 0.00034743342151 -0.0010270871845 5.9468038277e-05 
-0.00036697111977 -0.000600466269 -0.00079866822385 0.0005444748285 -0.0010356461186 4.851492332e-07 0.00019015284197 -0.00094513325486 -0.0004802579342 
0.00037755238534 -0.0013023584836 2.2079285575e-06 -0.00057054120272 -0.00071033410513 0.00032953161376 0.00024793154008 -0.0011853372276 3.2620046697e-05 
-0.00011816548398 -0.0011764481968 0.00032904252701 -0.00048322726282 -0.0010508032473 -2.6738907286e-06 0.00023043001201 -0.0012066209864 2.039662357e-05 
0.00047797623372 -0.0011155255071 -0.00031819920735 0.00019264541836 -0.00098853350661 2.2991639568e-05 0.0005205254919 -0.0012415130683 4.1366350265e-06 
0.00017602496301 -0.00066193403408 0.00013560396065 -0.00088677517358 -0.0019165403907 3.6595152162e-05 0.00040938736693 -0.00087662403913 -0.00011408453443 
0.00021722368906 -0.00072072977929 -1.8140244246e-05 0.00026833034438 -0.001089132053 -2.7604304964e-05 0.00012570094406 -0.0013142988666 -0.00024104589159 
0.00021742244086 -0.00092597906196 -3.3513213753e-05 0.00083627724637 -0.00093466219221 -1.4558963838e-05 0.00024614629458 -0.0014579138766 -0.00020375843372 
0.00035386472872 -0.0013729069163 8.5718165412e-05 0.00035244661179 -0.00075286348477 -0.00012447829818 -2.9807063109e-05 -0.0012429970891 -0.00016714765645 
-0.00015165694754 -0.0012160424869 -5.8515115874e-06 0.00020762997167 -0.0011609996527 -7.2315835917e-05 0.00051819256168 -0.00101045912 0.00025898671753 
7.4085864992e-05 -0.0011242928025 0.00015204817013 9.958629181e-05 -0.00071453057518 -0.0003374526607 -0.00015459848792 -0.001143716779 -9.8723966138e-07 