# vtk DataFile Version 4.1
vtk output
ASCII
DATASET UNSTRUCTURED_GRID
POINTS 1274 float
0.511929 0.556413 0.037952 0.468926 0.652638 0.105401 0.487161 0.599737 0.268458 
0.494168 0.588967 0.0995426 0.422947 0.757711 0.032314 0.423932 0.769724 0.118991 
0.475068 0.638633 0.213069 0.459887 0.671903 0.268647 0.392887 0.847638 0.0595358 
0.397837 0.814134 0.163964 0.445065 0.701393 0.215348 0.431823 0.741199 0.265758 
0.361946 0.904956 0.0319704 0.342685 0.970799 0.0512374 0.380652 0.880046 0.146346 
0.39402 0.846304 0.232071 0.344475 0.959669 0.26002 0.312934 1.04175 0.0387196 
0.3888 0.916296 0.08696 0.446582 0.900468 0.110292 0.33134 0.998369 0.129625 
0.408642 0.916924 0.218454 0.309851 1.0391 0.265121 0.351464 0.930813 0.188079 
0.280473 1.10461 0.0481667 0.327438 0.989119 0.200273 0.286037 1.10961 0.260298 
0.256773 1.16482 0.0336641 0.355844 1.11815 0.105812 0.301199 1.07056 0.10979 
0.289457 1.25484 0.038219 0.302288 1.04679 0.200326 0.282903 1.1021 0.172808 
0.332239 1.2584 0.0930925 0.383196 1.16028 0.0369624 0.274924 1.14998 0.110689 
0.420373 1.15226 0.106728 0.260044 1.15211 0.20894 0.339823 1.10885 0.21159 
0.218239 1.25722 0.0332144 0.318664 1.1887 0.0548871 0.319206 1.15853 0.173873 
0.244086 1.20062 0.164934 0.287705 1.18432 0.26484 0.23843 1.22368 0.0940307 
0.370501 1.23433 0.0358183 0.235951 1.23168 0.23641 0.215066 1.25825 0.149969 
0.541457 0.470731 0.0302102 0.611287 0.296256 0.0940529 0.595061 0.359893 0.120409 
0.596677 0.348182 0.196518 0.575797 0.389614 0.266496 0.609574 0.315639 0.261271 
0.540188 0.471252 0.210056 0.508187 0.559123 0.219404 0.603194 0.329385 0.0358989 
0.566342 0.418333 0.159007 0.482993 0.626504 0.0390311 0.610348 0.477625 0.0478373 
0.545584 0.475941 0.0985343 0.549237 0.448947 0.268474 0.564732 0.573785 0.262775 
0.526994 0.513482 0.159492 0.549639 0.670119 0.0308557 0.444873 0.71272 0.0780159 
0.517282 0.698993 0.10556 0.470619 0.755245 0.178147 0.550357 0.54913 0.100679 
0.523504 0.660483 0.266703 0.445827 0.698199 0.146607 0.414068 0.77972 0.214252 
0.500687 0.682838 0.170859 0.553631 0.578611 0.168527 0.493524 0.782613 0.0916789 
0.534471 0.762671 0.146098 0.457441 0.81696 0.0363742 0.50814 0.72653 0.0397528 
0.483814 0.81965 0.150705 0.435805 0.837199 0.113455 0.363668 0.896305 0.269731 
0.498667 0.771207 0.260788 0.538488 0.619546 0.219002 0.562731 0.749486 0.220367 
0.467647 0.817409 0.213651 0.505878 0.7082 0.227333 0.459782 0.891613 0.0403216 
0.520523 0.856351 0.0357984 0.534724 0.793453 0.0326216 0.454207 0.877794 0.177891 
0.494068 0.852315 0.0958577 0.466228 0.871994 0.260664 0.438232 0.806038 0.269013 
0.415979 0.953392 0.0373642 0.373214 1.09179 0.0325883 0.464978 1.0064 0.0331265 
0.399541 0.999154 0.0943541 0.414247 0.950168 0.150039 0.466913 0.965773 0.0911249 
0.485627 0.943172 0.261045 0.41967 0.974368 0.261481 0.534843 0.985749 0.2689 
0.458417 0.955631 0.203046 0.382877 1.02702 0.0323971 0.365147 1.05755 0.0853545 
0.463223 1.03376 0.0904081 0.36226 1.06479 0.158664 0.394917 1.00629 0.196959 
0.441276 1.05244 0.264237 0.376662 1.0306 0.267326 0.483537 1.00592 0.235589 
0.455284 1.13854 0.0385412 0.469985 1.08492 0.122971 0.426694 1.04385 0.138744 
0.361312 1.09203 0.269157 0.524539 1.18154 0.176759 0.490535 1.10494 0.267879 
0.408029 1.08988 0.213068 0.429773 1.13501 0.264221 0.44513 1.12254 0.166614 
0.359249 1.16215 0.260112 0.5098 1.18895 0.0380057 0.497235 1.14903 0.121368 
0.435326 1.20835 0.0341934 0.369844 1.2051 0.0999332 0.380807 1.13508 0.166237 
0.338899 1.23842 0.26095 0.452888 1.1697 0.207622 0.401374 1.20814 0.219685 
0.469754 1.19203 0.26612 0.486296 1.25696 0.036298 0.312926 1.21381 0.136894 
0.460764 1.25093 0.226885 0.299954 1.21468 0.204146 0.472756 1.2148 0.169766 
0.373195 1.23262 0.162251 0.639642 0.231387 0.178499 0.564543 0.411777 0.0315353 
0.659955 0.19313 0.055318 0.661288 0.287606 0.212655 0.639828 0.241936 0.26351 
0.668926 0.174492 0.206844 0.642908 0.223021 0.114706 0.63217 0.407941 0.0363383 
0.592726 0.424651 0.0894239 0.526697 0.510587 0.265843 0.604294 0.488993 0.262834 
0.617373 0.291115 0.158769 0.638715 0.377908 0.245323 0.613825 0.461089 0.137193 
0.58695 0.548207 0.0375182 0.66054 0.424565 0.10204 0.533473 0.637642 0.132328 
0.603625 0.529521 0.146532 0.574542 0.526337 0.211552 0.591806 0.434306 0.220402 
0.613188 0.625475 0.266299 0.603514 0.719996 0.0390345 0.555081 0.611593 0.0650143 
0.568682 0.736181 0.0983001 0.565852 0.699776 0.157104 0.599694 0.711586 0.268228 
0.590227 0.635915 0.174036 0.642657 0.643005 0.21074 0.572134 0.673563 0.224283 
0.596193 0.760562 0.159918 0.586457 0.6674 0.0962323 0.639802 0.789122 0.0390285 
0.56121 0.798397 0.090752 0.54182 0.815462 0.189835 0.544904 0.83325 0.26183 
0.615692 0.7761 0.26525 0.51635 0.874869 0.210201 0.62496 0.710786 0.200284 
0.600348 0.823712 0.221548 0.58485 0.838303 0.0365351 0.560555 0.863343 0.0934818 
0.565165 0.912252 0.0397003 0.50294 0.945986 0.0315427 0.552099 0.910634 0.260438 
0.59799 0.968478 0.265549 0.527865 0.86423 0.146771 0.505259 0.925879 0.173916 
0.53456 1.00552 0.0510172 0.522339 0.918807 0.107768 0.47352 1.06075 0.188742 
0.467583 0.996974 0.154644 0.536738 0.990176 0.13902 0.517985 1.04832 0.269179 
0.571422 0.946512 0.192867 0.436155 1.06786 0.0347793 0.540172 1.12684 0.0335713 
0.573032 1.06648 0.0351733 0.503777 1.06746 0.0328707 0.552056 1.10869 0.095416 
0.522564 1.05135 0.10505 0.543646 1.01037 0.20968 0.502659 1.12692 0.205439 
0.537787 1.23508 0.0889667 0.573685 1.21248 0.0322865 0.562621 1.17827 0.12388 
0.523272 1.09314 0.152533 0.604277 1.08861 0.268671 0.539393 1.23953 0.158995 
0.534212 1.21417 0.238436 0.565675 1.13268 0.180713 0.558634 1.07481 0.214276 
0.554043 1.13909 0.259024 0.639195 1.20846 0.0436329 0.622908 1.21123 0.111391 
0.463891 1.21652 0.10061 0.655714 1.24216 0.221103 0.595159 1.20103 0.186393 
0.758008 1.18821 0.207615 0.679058 0.130694 0.0408109 0.693465 0.119144 0.112529 
0.721561 0.032199 0.193044 0.681916 0.134488 0.265517 0.69818 0.0936879 0.181118 
0.6367 0.262744 0.0387352 0.694511 0.315769 0.0396724 0.702704 0.225327 0.149127 
0.704073 0.267182 0.267353 0.640378 0.406931 0.174886 0.694739 0.200264 0.267451 
0.67817 0.327844 0.266705 0.662263 0.337075 0.137936 0.680664 0.4596 0.0425834 
0.659113 0.495732 0.0972963 0.652409 0.358401 0.0778878 0.685801 0.467602 0.158502 
0.648622 0.462857 0.216745 0.680679 0.279105 0.104682 0.730795 0.433603 0.199548 
0.690702 0.353993 0.201223 0.611067 0.646284 0.0351638 0.662383 0.526424 0.0349394 
0.635001 0.558605 0.0889574 0.595175 0.600356 0.120147 0.647784 0.608985 0.156553 
0.663667 0.684731 0.262137 0.637715 0.547541 0.269081 0.686681 0.583323 0.20711 
0.616605 0.579396 0.208101 0.671988 0.548387 0.149835 0.677014 0.517188 0.20625 
0.628154 0.716605 0.122606 0.657918 0.656668 0.0910177 0.696801 0.573417 0.0970937 
0.708155 0.628806 0.137998 0.717106 0.648116 0.207032 0.660663 0.824349 0.268702 
0.664683 0.673144 0.159227 0.623822 0.8036 0.116746 0.646951 0.878202 0.0390988 
0.690227 0.763252 0.0798042 0.707875 0.704319 0.0843372 0.679954 0.764076 0.149208 
0.636585 0.777034 0.203001 0.69654 0.716516 0.204696 0.613643 0.870029 0.265678 
0.582551 0.873642 0.181891 0.614661 0.971125 0.0372506 0.668629 0.986057 0.0762809 
0.628701 0.869786 0.105938 0.643045 0.928167 0.0891426 0.586897 0.91018 0.126396 
0.609898 0.968801 0.138939 0.633865 0.985788 0.209442 0.675633 0.850922 0.148024 
0.636038 0.923928 0.233824 0.643771 0.867496 0.206392 0.633463 0.918326 0.169143 
0.630565 1.1085 0.0300652 0.64203 1.04155 0.0404207 0.69459 1.09381 0.0358782 
0.573813 0.958378 0.0913423 0.593682 1.02264 0.0954838 0.667298 1.04351 0.115849 
0.577912 1.03162 0.26036 0.613293 1.02684 0.1617 0.671351 1.03265 0.18433 
0.61658 1.09112 0.0912249 0.621393 1.14451 0.139071 0.696761 1.16673 0.0370856 
0.595907 1.15596 0.0664474 0.582953 1.0803 0.147308 0.623681 1.05705 0.217163 
0.741296 1.13327 0.0833216 0.636414 1.13379 0.223924 0.660958 1.09374 0.167455 
0.604011 1.19739 0.26361 0.749052 1.2141 0.0335597 0.792226 1.18454 0.101176 
0.689405 1.17044 0.106153 0.672744 1.19958 0.168391 0.67761 1.18895 0.259933 
0.722304 0.0832232 0.0341634 0.754285 0.122057 0.0763692 0.718316 0.0487152 0.116979 
0.784041 0.0585402 0.124963 0.723053 0.0424472 0.26252 0.734748 0.105766 0.241759 
0.707758 0.24237 0.035057 0.750903 0.182081 0.0391983 0.768642 0.266058 0.030449 
0.73737 0.177376 0.110602 0.72819 0.156864 0.173064 0.755494 0.16747 0.2634 
0.774199 0.23053 0.156297 0.76967 0.244413 0.262257 0.730584 0.210511 0.212474 
0.703012 0.391296 0.0363958 0.764175 0.327735 0.0321007 0.720464 0.33327 0.103037 
0.746512 0.252887 0.0931601 0.732244 0.419239 0.0925047 0.764489 0.374334 0.126299 
0.703633 0.387173 0.140755 0.747606 0.320809 0.263464 0.734671 0.282643 0.198691 
0.697061 0.419766 0.260499 0.726495 0.514356 0.0855943 0.752964 0.46375 0.0378092 
0.797413 0.486097 0.0860725 0.754256 0.469577 0.133612 0.789379 0.420257 0.1694 
0.674115 0.494609 0.266634 0.80382 0.511422 0.264174 0.774067 0.402454 0.260578 
0.740095 0.48121 0.247443 0.717856 0.548815 0.263651 0.669084 0.600065 0.0391257 
0.694898 0.6654 0.0315339 0.736453 0.534451 0.174801 0.760942 0.582524 0.121044 
0.678542 0.614324 0.2674 0.752309 0.585474 0.217351 0.743076 0.622966 0.267491 
0.673526 0.724549 0.0330711 0.747581 0.749937 0.111239 0.758697 0.693337 0.0384567 
0.727938 0.755438 0.0312076 0.749045 0.657283 0.0969792 0.739801 0.694513 0.261127 
0.687334 0.818278 0.208622 0.726166 0.693699 0.145856 0.750947 0.74578 0.178024 
0.69372 0.745653 0.269539 0.701995 0.934979 0.0399824 0.716751 0.854694 0.0346141 
0.68115 0.826462 0.0846958 0.693872 0.889646 0.0958256 0.739256 0.810929 0.159805 
0.739175 0.840247 0.260085 0.734366 0.778082 0.228125 0.681323 0.886706 0.265524 
0.713354 0.878524 0.206329 0.687644 0.951882 0.26891 0.717699 1.02183 0.0398203 
0.725145 1.07022 0.0897334 0.727066 0.956614 0.106761 0.689541 0.949534 0.205708 
0.672036 0.97658 0.1386 0.693966 0.919461 0.151051 0.729661 1.01125 0.1559 
[...]
POINT_DATA 1274
FIELD FieldData 10
VELOCITY 3 1274 double
0.00049130601983 -0.00056777743138 -0.00033370106329 -3.3634285956e-05 -0.00050266467186 -2.8942861228e-05 0.00026046887307 -0.00060211877601 2.2568612404e-06 
-0.00015611094325 -0.0010265779312 0.0013215016226 0.00021772388575 -0.00071716528751 -0.00024312481219 0.00040283168968 -0.00031620755133 0.00031233204269 
8.1365750427e-05 -0.00018537597081 0.000352664254 -0.0003924449624 -0.000639987936 4.750533504e-05 0.00043389548954 -0.0009055761665 -8.2511059579e-05 
-0.00016543218377 -0.00034821371583 0.00057141921892 0.00030518567332 -0.00094053840083 -0.00045276780228 0.00041237152153 -0.00083457156007 -0.0003224192254 
0.00027324163037 -0.00077096579962 4.7132714779e-05 0.00048937841439 -0.0014556292175 0.00087483942797 0.00021088914994 -0.0004207158401 -0.00018113482787 
0.0002311713836 -0.00067608924795 -0.00045010304398 0.00037085754474 -0.00095810051169 0.00021120326048 0.00055451100688 -0.0016158137521 -8.5182638829e-05 
0.00089519198513 -0.00080732586561 -0.00020625018018 0.00061406841091 -0.00025648491573 -0.00016625383708 0.00030022635454 -0.0010257809137 0.00051534499073 
0.00017450824461 -0.00054680825855 -0.00021379257116 0.00020983853233 -0.00030556200447 -0.00012463099283 9.1860546151e-05 -0.00026191776677 -0.00014575626798 
0.0006895056339 -0.0015121735252 0.00020050268194 0.00023326941258 -0.00047714080535 0.00050651664817 0.00020166320511 -0.00034273272924 2.7088938866e-05 
0.00059923555079 -0.0015348816357 6.5573694805e-05 0.00054685966048 -0.0015599075871 -0.0065984307293 0.00026508930449 -0.00043250028305 -0.00077460533784 
-8.0745579935e-05 -0.0041170118052 9.652515898e-06 0.00018007310536 -0.00053620358719 4.4484611345e-05 0.00032725022306 -0.00076731582666 -0.00056423323248 
-0.0080282952802 -0.01103076438 0.0066672219529 0.0027799600279 -0.0021001393551 -0.00010778222102 0.00021770361824 -0.00042237568822 -0.00053051043461 
0.00034176480172 -0.0014827257782 -0.00097151972783 0.00040864381759 -0.00093086229319 -0.00057662746463 -3.2824632911e-05 -0.00079827862302 -0.00041826822372 
7.6784283613e-05 -0.00021963270444 2.3594013671e-05 0.0018771217871 -0.0035740420109 -0.0014181153741 -0.00040417397171 -0.00070573179989 6.1379600564e-05 
0.00027644125949 -0.00069449962679 -0.00015839039406 -0.00090674065387 -0.00021172605465 -0.00015378023724 0.00014620939947 -0.00036420329226 -6.6374248942e-05 
0.0039381558064 -0.0015870072004 0.0088285864216 0.0041025748367 -0.010073447144 0.0059316036107 0.00026490882568 -0.0006317245911 0.00013494381083 
-0.0062756563002 0.0039439399836 2.7108397837e-05 0.00010928808771 -0.0015970704971 0.00069104886816 0.00075244678171 -0.00083537960601 0.00046118528271 
-0.00039896123613 0.00024330364722 0.00061024430147 0.00016580900292 0.00071713117915 0.00080901896823 0.0003902476152 -0.001095688652 0.0001354643223 
0.00035633679675 -0.00081855671548 0.00032930962775 0.00028223068445 -0.0004619190673 -0.00017150830709 0.00017250260217 -0.00041952991303 7.9428725578e-06 
0.00030512574788 -0.0007628905987 0.00063047980873 0.00034486656363 -0.00078795651616 0.00020280699773 -0.00045088234572 -0.00087536685513 0.00053895071929 
0.00053641894989 -0.00052228646686 0.00027972413193 0.00054561907573 -0.00062536453443 -0.00034857229463 7.7630050085e-05 -0.0014014392147 5.1503386599e-05 
0.0002506313992 -0.00053136936614 -2.8117957408e-05 0.00086984453356 -5.6408287432e-05 5.6736285607e-05 8.1557945672e-05 -0.00025885560165 0.00030439898497 
0.0001216274064 -0.00029931888382 0.00018954752411 0.0007992968376 -0.00086332371008 0.00048556600502 0.00081240369114 -0.00055279556502 -0.00090734856931 
-0.00046258909171 -0.001062870041 -4.5222511233e-06 -1.3823103495e-06 0.00025121395009 -0.00085051804885 0.00013452099942 -0.00088345902634 5.5772213414e-05 
9.8028362996e-05 -0.0012445216992 -0.00052904947646 -0.00045893849757 -0.00048828908686 -0.0007200671685 7.6920527831e-05 -0.00049590077629 3.7522018669e-05 
0.00014137663933 -0.00013587702438 -0.0004454920475 0.00055755199276 -0.00092614567402 -6.3858583445e-06 0.00019833196194 -0.00085896042385 8.1694826816e-05 
0.00075888793049 -0.00047841612816 0.00029919536462 -0.0001245618004 -0.0001754660748 0.00040026235104 0.00043588417403 -0.00096800842432 5.2302673385e-05 
3.585717043e-05 -0.00054330145788 -0.00014630198562 0.00015736314076 -0.00073867164549 -0.00015768612754 0.00040540823045 -0.0013386397113 0.00010943601645 
-0.0014230470821 3.5711831816e-05 -0.00043692328621 0.00017758682035 -0.0011816667809 0.0002044425319 -6.6834455378e-06 -0.00084037505465 0.00012199019184 
3.7391232219e-06 -0.00089901243434 -0.00075915052245 0.00043367361097 -0.0007874150558 -0.00010587414338 0.00022185670166 -0.00034538998772 -0.00026698827948 
0.00038399122805 -0.00082396187952 -1.8675880668e-05 -0.0013057160145 -0.00056121246913 0.00013945362832 -0.00018713761253 -0.0010391327672 -0.00026944852246 
0.00070754306699 -0.00011519258005 -0.00021169860952 0.0013501886362 -0.0017329298342 -8.4058402994e-05 0.005077168843 -0.00086543458317 -0.00019726281907 
0.00065583804831 -0.00093912062156 0.00049734404979 0.00057730324639 -0.00078902834335 0.00078202880477 0.0011600643716 -5.1098234661e-05 0.00041799148988 
-0.00029083277274 -0.00090378422606 0.00051256149362 -0.00013160624814 -0.00090816017825 0.0001646560891 5.726484038e-05 -0.00061740011454 6.1853545333e-06 
0.0016754017651 -0.0026055310597 -0.00020150565359 0.00043807199565 -0.0016855249709 2.321838118e-05 7.5927639242e-05 -0.0014872337223 -0.00057978890434 
-0.0007375741065 0.00019829351169 -0.00090136144075 0.00028608086227 -0.0007451695551 -0.00065319675515 0.0002409494091 -0.0004033170027 -1.2899849689e-06 
0.00042004466425 0.00010008091374 6.4237798116e-05 0.00037195983852 -0.00039710259296 -8.0058496425e-05 -0.00105452322 -0.0010176252841 0.0010242895971 
0.002545556799 -0.0028459828465 0.00011221339731 -0.00019819139361 -0.0012282836205 0.0015471022909 0.00036556366506 -0.00083138916469 0.00028352959934 
0.00049880368986 -0.00049516385227 -0.0001975081184 -0.0015405326147 -0.0016748477693 -0.0015629954931 -0.0013726558611 -0.0013777555846 -0.00017239211142 
-0.0010236811339 -0.00090594195853 0.00036894558741 -0.0011678405391 -0.00095373050092 5.1327130306e-05 -0.00061379380121 -0.0013314013982 -0.00020766258545 
-0.0011084507355 -0.00063635977314 -0.00034719503501 0.0010486029313 -0.0014548783775 0.0043748165864 0.00079720039768 -0.001783507331 -0.0028922327282 
0.0032895337492 -0.0026529297101 -1.2317081766e-05 -0.018088975484 -0.015692756396 0.025741614281 -0.00055629470167 -0.00063744501213 0.00035465971075 
0.0052451652609 0.00098807202479 -0.00061038477728 -0.0016319682963 -9.2986405826e-05 -0.00080660693557 0.0088118161599 0.0076014895005 0.019328699135 
-0.0045595453553 0.0013120238666 -0.00019183954292 0.0021100996965 -0.0012377300449 -0.0026393498237 -0.027391106039 0.0084175341896 0.018009639264 
-0.076638638184 -0.013545426549 -0.005845139507 0.0042687355811 0.00017647786138 0.00097383461854 -0.00021439890641 0.00068064791065 0.0011344404597 
-0.023336412411 -0.014661968982 0.025589775896 0.00027767836414 -1.3241688236e-05 0.00048706974397 -0.00036466878779 0.00081270573826 -0.00029462094723 
-0.00015626372004 -0.0001261249512 0.00049303608106 0.00042384195387 -0.00042214166971 0.00019061702319 -3.7216292055e-05 0.00020700964576 0.00080442827412 
0.00015336657363 5.7404090008e-05 0.00026492192001 -0.00012919661457 -0.00033818826504 0.000835623513 -0.00014442093622 -0.00077088206181 -1.9975147609e-05 
-0.0014823564668 -0.0016251925215 -0.00058238357014 9.0829998603e-05 -0.00039417756087 -1.5342560633e-05 0.0007025102248 -0.0012272723811 -0.00025662747952 
-4.5465267481e-05 3.2001417361e-05 0.00034835329204 0.00024347974599 -0.00096730024183 0.00068027524746 -0.00029253823586 -0.00031635058426 -0.0014367293613 
0.00039880921743 -0.00074488900806 -4.8981142784e-05 -0.0007489135529 -0.00081949995756 0.00018612676306 0.00066421318464 -0.00046871810676 -0.00080006156109 
0.0004644915856 -0.00049161938269 0.00078743278115 0.00044126370424 -0.00089767286916 -0.00049526692546 0.00079506482162 -0.00052015736067 -4.9799669124e-05 
0.00021024128242 -0.0014827721383 -8.6775716734e-05 -0.00022970387914 -0.00091122257505 -3.359427169e-05 -0.00040227793898 -0.00010820470651 0.00029220358537 
0.00026501756992 -0.0015306308404 0.00056381569717 0.00032085402006 -0.001065768076 0.00066627201684 -6.981376606e-05 -0.00095912417142 0.00012578982148 
0.00074276209096 -0.00071733831289 8.6722089219e-05 0.0008626260651 -0.0011760264993 5.0305821625e-05 0.00021670257475 -0.0013727578902 0.00043400406026 
-0.0010927862806 0.00038463539031 0.00065084107828 0.00044003975217 -0.000298113777 -0.0001755660126 -0.00090243574321 -0.00059489137212 -1.3464462756e-05 
0.00024335034662 -0.0010113295943 -0.00019294276819 0.00025492745631 -0.0008104861054 0.00013011967802 0.00055570213893 -0.00073724890679 3.800644733e-06 
-0.00033382293684 -0.00067839628246 0.00016264551598 4.5518444251e-05 -0.0010483545832 0.00043887053667 9.7057873611e-05 -0.0011796503901 0.00030590583285 
0.00045476997121 -0.00087419056929 0.00023319108352 -0.00025947540057 0.00016288700083 -0.0018566034373 0.00059318567708 -0.0019746766072 -0.00044429867682 
0.00094693754378 -0.0016625493446 4.886430181e-05 0.0010594541795 -0.0016630830383 3.0508454987e-05 -0.00014834789882 -0.0002919383697 0.00011133627397 
0.00019737478953 -0.00057307991112 -2.8245678832e-05 0.00058705743662 -0.00058698530786 6.849602811e-05 0.0016214708605 -0.0017347996381 -0.0011544745534 
0.0012171164476 -0.0019348425525 7.2563429055e-05 0.00024409256406 -0.0020748352704 -0.0014321610468 -0.00053527567927 -0.00097030875671 0.00098156978437 
0.00044740591424 -0.00071606387708 0.00054207986728 0.00027960785978 -0.00048254017149 -0.00082084610278 -0.00012219572789 -0.00087953907052 -0.00013150186696 
-0.00035639037249 -0.0010384164411 -0.00036913411087 0.00097224168709 -0.0024912539109 7.0950877969e-05 -0.0078224539176 -0.0055385720571 -6.2147916382e-05 
-0.00044628485275 -0.00137614092 -0.00019125832985 0.0011173440906 -0.0018390499588 -4.245036974e-05 0.00040811698648 -0.00054136972854 -0.00015065208538 
-0.00019024714112 -0.00063005021269 -0.0014415067797 -0.00092613193133 -0.0014245430762 -6.584045307e-05 -0.0018888348008 -0.00059834390582 0.0009728596302 
-0.00010101279389 0.002050193134 0.0021604538898 -0.0050064983801 -0.0005640353294 0.00011829729108 0.00013154332895 -0.0006398894541 -0.0025520589421 
-0.0011917694829 -0.0017409153383 -0.00051488155965 0.000270900716 -0.00051706788387 -9.0073833528e-06 -0.006258164715 0.0006722608413 0.0023401359167 
-0.0046898187354 6.5780220909e-05 -0.0017096153825 -0.0025371150307 -0.0020389359339 -0.00091264500629 -0.0026530839122 -0.0011801063735 0.00031008167976 
-0.0010878439869 -0.0017764078082 0.00028476284511 -0.0053271395441 -0.0077428380583 -0.0011397344302 -0.031092320581 -0.0031909988271 -0.007447654535 
0.00058204351852 -0.0015606234799 0.00093040690052 -0.061168565358 -0.025618587173 0.0012966302329 -0.0060129108586 -0.00036245756712 0.00023800679091 
-0.0082516873356 0.00093925238391 0.0087759463181 -8.1910588238e-05 8.4060880589e-05 -0.00039920137803 -0.00037001696513 0.00091646144554 0.00035766998471 
4.3367828098e-05 -0.00016327151275 -8.8966836929e-05 -0.00020162750136 -0.00105110947 2.4619096828e-05 -0.00032857920165 0.00085480801019 0.00036637811766 
0.00094531784036 0.00012135643563 -0.00014025868698 0.00090708812581 -0.0003394990273 2.4979625961e-05 -2.9594367782e-05 -0.00089415307298 0.0004960551398 
8.205917413e-05 -0.00065219090186 -0.00091595565746 -0.00025431810026 -0.00055688493133 -0.00038267820945 0.00064336508607 0.00035230551522 -3.306774006e-05 
0.0021916075485 0.00091829459912 0.00052132855423 -0.00039912158181 -0.00046567133225 -8.8368292581e-05 -0.00046488284866 -0.0010102509726 -0.00033639750052 
0.00021717694649 -0.00048338185016 -0.00023925224748 -0.00015194814723 -0.00097684826815 -0.0001797209373 0.00038845302517 -0.00066142674233 -0.00021733517611 
0.00094230495197 -0.0011024314812 0.00015140333639 0.0010458477615 -0.00064980018494 -5.7838010995e-05 3.8118414718e-05 -0.00072726449651 -3.4611111472e-05 
-6.2249115666e-05 -0.0002779250308 -0.00017453007757 0.00059353086238 -0.00076065433759 0.00012181219647 -0.00059976496067 -0.0012003992139 0.00027122486906 
-0.00019894425159 -0.00062627433013 0.00079674573182 0.0007172862429 -0.00031125204463 -0.00063798912665 0.00042742030398 -0.001488062137 0.00024992483672 
-0.00030083579162 -0.00095663712084 1.2590044978e-05 0.00038728420048 -0.0010333391851 -3.1262202972e-06 -0.00012475774497 -0.00089119946072 0.00022437975739 
-4.8089331233e-05 -0.00063190942366 -0.00015589258348 0.00074464908935 -0.00070462511619 -0.0001523178674 0.00061113431262 -0.00097566031242 -4.5563379883e-05 
-0.00077486250506 -0.0018942269817 0.00043220275872 0.00039962710813 -0.0012332727064 0.00028388422951 0.00055298749924 -0.0012487136424 -0.00034814367261 
0.000390264237 -0.0010346836237 0.00093515608039 6.3897058011e-05 -0.00092425365384 -2.0015792716e-05 4.0738553009e-05 -0.00096148433278 0.00012083136984 
0.00064520872196 -0.0009856289018 0.00057198205123 0.00041528697104 -0.0014627623026 2.010480387e-05 0.00099554154399 -0.0018633296406 -0.0001215388281 
-0.00051754251395 -0.00064322848321 -0.00037511567209 0.00029408014554 -0.0011179614736 0.00073818025963 0.00012445122807 -0.0014995189082 -0.00021995967866 
1.4805236146e-05 -0.0016049150739 -0.00031904671943 5.6847489345e-05 -0.00074532858591 0.00035931562927 5.8378556339e-05 -0.00082094355832 -3.0889658927e-05 
0.0007705848849 -0.0010705485118 -0.00015714502031 0.00025609604909 -0.00087256926069 6.4869505718e-05 8.0134951262e-05 -0.00078366409583 0.00041393986334 
0.0014001486886 -0.0013131915946 -6.7803031284e-05 0.00073487977296 -0.0011667506916 -0.0007077866349 0.00052587895131 -0.0015309734755 -0.0012606444327 
0.00027564319367 -0.00036825048681 0.00021332429315 0.00085145739625 -0.00024107596667 0.0004817471405 0.001723805503 -0.0014613266472 -5.5085209652e-05 
1.667246658e-05 -0.00029366906845 0.00012762055611 0.00034670424479 -0.001095122578 0.00092295186492 -0.00081504888255 -0.0022546744569 -0.00022765574944 
0.00017439135822 -0.00052568319562 3.060559836e-05 -8.4831931324e-05 -0.00057878722511 -0.00021197225623 5.5843982212e-05 -0.00074130822305 -6.4948806977e-05 
0.00066745526438 -0.0013157312427 -1.4226080297e-05 0.00086989354077 -0.00072883986927 0.00032175860987 0.00037097913169 -0.00051921880769 0.00011665424573 
-5.0635611649e-05 -0.00043202234416 9.5248716592e-05 0.00078388927633 -0.00068918104532 0.00019485734154 0.00082454473084 -0.00054889513446 0.00013029401913 
0.00043232678284 -0.00036522104462 0.0005159189627 -0.00045237246857 -0.00059558788758 0.00052454756058 -2.0033745599e-05 -0.00057327996646 0.00026128418073 
-0.0055272752033 -0.0039536927534 -0.0046074483044 -0.0010467744569 -0.0016519001092 -0.00074269555037 0.00069757508346 -0.00021971403702 3.8996483699e-05 
0.00013813407948 -0.0005623839587 3.1403661222e-05 -0.0039820186157 0.00047309578267 -0.0021301381175 -0.0001106197931 -0.00046920628337 0.00025167913397 
-0.0049689443727 0.001651657978 6.6271044445e-05 0.00034237062114 -0.00092095576357 0.0001864437319 -0.0061663374694 -0.0024687033512 -0.0035054572966 
0.001089335626 -0.00022765508863 0.00077738562241 -0.0060848338079 -0.0019556334622 -8.0842896826e-05 -0.0049029234667 -0.0018353763578 0.0023364337989 
0.00038601381934 0.00019094719656 0.00018341733226 -0.0005815938738 -0.0001941377241 -9.5708038934e-05 -0.00031066568036 0.00086902865594 0.0010731615376 
-9.6229820514e-05 -0.00069206268928 0.0010047381035 0.00018267685942 -0.00051534859296 4.1393215506e-05 0.00086256891173 0.00062948829591 0.00052100426539 
-0.00011706010119 -7.5541833766e-05 0.0014725403246 0.00027099840534 -0.00024070883011 -0.00035659247276 0.0011545204287 0.00054252398943 -0.0016991836887 
-0.00081974009333 -0.0011336858947 -0.000274085467 -0.00055906120161 -0.0013646826413 -0.00013400329265 0.0006680581446 5.8133875298e-05 -1.6142098408e-05 
0.00011448446902 -0.00064162254989 -0.0012127628323 -0.00017742038875 -0.0010768545417 -0.00054343526922 0.00083240660525 -0.00090978852749 0.0002274829737 
-0.00027155835001 4.0256410386e-05 -4.1381743293e-06 0.0012636477185 -0.00012781184748 -0.0008765941352 -0.00014072927688 0.00021129184908 0.00035886989948 
0.00079771190845 -0.0010351867322 -0.00079981264989 0.00062408229462 -0.00082358732545 -3.044036186e-05 1.3132487888e-05 -0.00032062309951 0.00078130394053 
-0.00021843468461 0.0003219761177 0.0003490359367 0.00018877288989 -0.00046766232492 3.7344144821e-05 0.00043172882316 -0.0012292563188 -0.00053287432709 
-0.00018399599434 0.00028762775869 1.0400550997e-05 0.0003223640413 -0.00061649463191 0.00092785623419 -0.00063374677452 -0.00016644482322 0.00017007785686 
-0.00022140723252 -0.0015943134636 0.00042170960336 0.0005091960871 -0.00092101077381 0.00056792434081 0.0016346092796 -0.00081952275317 0.0013350442937 
0.00077152495478 -0.00058002333895 7.8418058869e-05 0.00049920025197 -0.00029639121834 9.6879266983e-05 -0.00044153563885 -0.0014148430997 -0.00018890832186 
0.0006626250686 -0.00048752833242 -0.00061967296094 0.00059256881589 -0.00066808341777 -1.8291191505e-06 -4.1714475885e-05 -0.0011081427495 4.5206814616e-05 
-0.00023561925654 -0.00084216411713 7.5297216655e-05 0.00065487209077 -0.0012081034552 0.0004843008731 0.00031878773374 -0.0001453631038 0.00087378481331 
0.00027255065802 -0.00048005295571 -1.1815790221e-05 6.8755290737e-05 -0.00015496715826 -0.00042395121116 0.00031330810126 -0.00084271122659 2.5031397966e-05 
-0.00037926352076 -0.00059842794376 -0.00020052550905 0.00038287437076 -0.0013968198531 0.00058526544936 -0.00034658378436 -0.0010209842842 7.021361713e-05 
-0.00020154442568 -0.0020402797132 0.00012094229844 0.00019077681615 -0.00068646303411 0.00023015365614 0.00023171072917 -0.0010937917615 -0.00013920907212 
0.00021417532011 -0.0014481524343 0.00012961563735 0.00033044240242 -0.0015220270426 0.00057291695849 0.0010683857928 -0.00077669307929 0.0010519556257 
0.00015230907339 -0.0010259639974 3.4469763766e-06 -0.00013705056432 -0.0006816984013 0.00035572464767 0.00047183835145 -0.0011718857298 4.059887105e-05 
8.5186170701e-05 -0.0014586655772 -0.00053297841923 0.00035924902225 -0.0016645994178 -0.00031506909124 -0.00044187283943 -0.0011329198212 -0.00032507757069 
-0.0011202183758 -0.0018088233576 -9.3892401274e-05 -0.0010791823641 -0.0025113559758 0.0011459422629 -5.2078309586e-05 -0.0012325676856 -0.00042541605378 
-0.0012093834088 -0.00058972915917 0.00099583539281 0.00050620975501 -0.00086972933493 -2.611555594e-05 -5.9675130944e-05 -0.00065517827444 -4.1951055169e-05 
0.00071207522288 -0.00070275650923 0.00019465826225 -0.0011103623287 -0.011216576876 0.0038484318048 0.00010998380677 -0.0018689900348 -6.6876329348e-05 
0.00022846882119 -0.00083137705162 -0.00063952021827 -0.00066634454024 -0.00088726527021 -0.00035180643466 0.001532278525 -0.0026810291474 -0.0013220489089 
-5.6594664837e-05 -0.00052749881339 -2.4616911122e-05 0.00028484498798 -0.0019566149618 0.00033516173363 -8.4330526651e-05 -0.0016278870899 0.0003766497725 
-6.8348010209e-06 -0.0011227648447 0.00071679770057 7.3367201187e-06 -0.0014443323679 4.7400956437e-06 0.0020041914247 -0.0035921385489 0.00052774908774 
-6.2794283663e-05 -0.0015800888964 -0.00027311801469 0.0081964876643 -0.0015137157817 0.0018083952598 -0.00037068908976 -0.0014814117531 6.0016937904e-05 
-0.0014944347312 -0.0043207278532 -6.8646237769e-05 0.0010559825318 -0.00045622992835 -0.00045218169421 0.0047013101155 -0.011093015233 -0.00091585486402 
0.00033979203304 -0.00096541059792 0.00056657182526 -0.00022022308076 -0.00061055114525 -0.0013975324831 -0.010273379628 -0.012053299598 -6.3075776287e-05 