# vtk DataFile Version 4.1
vtk output
ASCII
DATASET UNSTRUCTURED_GRID
POINTS 1274 float
0.512029 0.556172 0.0379518 0.468982 0.652496 0.105444 0.487213 0.599609 0.268458 
0.494224 0.588828 0.099474 0.423028 0.757515 0.032314 0.423979 0.769607 0.119076 
0.475122 0.638498 0.213096 0.459842 0.671768 0.268647 0.392982 0.847405 0.0594833 
0.397886 0.814014 0.164053 0.445136 0.701219 0.215298 0.431922 0.740971 0.265758 
0.362034 0.904741 0.0319695 0.342811 0.970492 0.0513896 0.380711 0.879904 0.146335 
0.39409 0.846135 0.231969 0.344569 0.959439 0.260017 0.313055 1.04142 0.0387195 
0.389037 0.916029 0.0868967 0.446661 0.90033 0.110222 0.331447 0.998111 0.129688 
0.408645 0.916775 0.218381 0.309873 1.03905 0.265122 0.351498 0.930729 0.187979 
0.280612 1.10427 0.048247 0.327485 0.989005 0.200342 0.286059 1.10956 0.260298 
0.256913 1.16448 0.0336643 0.356012 1.11785 0.105389 0.301259 1.07042 0.109701 
0.289491 1.25436 0.038219 0.302334 1.04667 0.200317 0.282964 1.10196 0.172722 
0.332296 1.25763 0.0930917 0.383514 1.15996 0.0369907 0.274984 1.14984 0.110623 
0.420553 1.15193 0.106656 0.260103 1.15197 0.208848 0.339789 1.1086 0.211531 
0.218286 1.25711 0.0332144 0.318888 1.18826 0.0547484 0.319213 1.15833 0.173853 
0.244141 1.20049 0.164855 0.287595 1.18427 0.26484 0.238486 1.22355 0.0940169 
0.370743 1.23387 0.0356631 0.236176 1.23113 0.236754 0.215116 1.25813 0.149945 
0.540474 0.471526 0.03021 0.611366 0.296062 0.094095 0.595151 0.359678 0.120506 
0.596698 0.348133 0.196642 0.575823 0.389546 0.266497 0.609642 0.315476 0.261327 
0.540277 0.471032 0.209987 0.508226 0.55903 0.219371 0.603237 0.329279 0.0358989 
0.566431 0.418112 0.159112 0.483093 0.626261 0.0391232 0.610214 0.477354 0.0479964 
0.54563 0.475833 0.0985265 0.549264 0.448879 0.268474 0.564799 0.573487 0.262775 
0.527049 0.513347 0.159503 0.54981 0.670042 0.0308574 0.444925 0.7126 0.0781048 
0.5173 0.698887 0.105655 0.470727 0.755104 0.178176 0.550438 0.549022 0.100669 
0.523441 0.660253 0.266704 0.445862 0.698117 0.146578 0.414149 0.779522 0.214278 
0.500708 0.682601 0.170759 0.553695 0.578476 0.168501 0.493575 0.782395 0.0917241 
0.534577 0.762509 0.14612 0.457561 0.816741 0.0363739 0.508155 0.726345 0.0397529 
0.483874 0.819508 0.150704 0.435884 0.837066 0.113433 0.363763 0.896075 0.269731 
0.498733 0.771077 0.260787 0.538497 0.619273 0.219066 0.562778 0.7493 0.22036 
0.467416 0.817314 0.213577 0.505967 0.707942 0.227235 0.459792 0.891401 0.040248 
0.520503 0.856082 0.0357723 0.534878 0.793219 0.0326224 0.454243 0.87767 0.177831 
0.494138 0.852107 0.0957416 0.465777 0.871833 0.260664 0.438178 0.805825 0.269011 
0.416122 0.953276 0.0373628 0.373268 1.09151 0.0325888 0.46523 1.00625 0.0331286 
0.399674 0.998887 0.0944683 0.414455 0.949947 0.150175 0.4671 0.96562 0.091124 
0.485495 0.942924 0.261179 0.419569 0.974184 0.26148 0.534802 0.985492 0.2689 
0.458757 0.955009 0.202882 0.383104 1.02658 0.0323973 0.365183 1.05721 0.0853101 
0.463281 1.0336 0.0904154 0.362318 1.06462 0.158576 0.394964 1.00615 0.196926 
0.44129 1.05233 0.264238 0.376675 1.03049 0.267394 0.483439 1.00565 0.235672 
0.455607 1.13824 0.0385399 0.470125 1.08469 0.123084 0.42679 1.04367 0.13879 
0.361223 1.09191 0.269156 0.524575 1.18116 0.176525 0.490297 1.10462 0.267884 
0.407965 1.08971 0.213082 0.429635 1.1349 0.26422 0.445148 1.12232 0.166658 
0.359116 1.16203 0.260112 0.509977 1.1888 0.0381139 0.497494 1.14873 0.120891 
0.435633 1.20804 0.0341936 0.36887 1.20382 0.101411 0.380834 1.13491 0.166279 
0.338988 1.23835 0.260951 0.452784 1.16952 0.207637 0.401879 1.2084 0.220813 
0.469422 1.19205 0.266121 0.486457 1.2568 0.0362705 0.311951 1.21403 0.13742 
0.459707 1.25071 0.226702 0.300107 1.21452 0.204145 0.472857 1.21458 0.169843 
0.372233 1.23163 0.163599 0.639636 0.231399 0.178665 0.564445 0.412017 0.0315353 
0.659971 0.193096 0.0555334 0.661348 0.287494 0.21267 0.63988 0.241811 0.26351 
0.668946 0.174445 0.206867 0.642885 0.223081 0.114864 0.632044 0.407699 0.0363395 
0.592626 0.424398 0.0894493 0.526725 0.51052 0.265844 0.604475 0.488704 0.262779 
0.617381 0.291099 0.158833 0.638774 0.377827 0.245433 0.613726 0.460978 0.13711 
0.587052 0.54799 0.0375177 0.660454 0.424437 0.101996 0.533579 0.637477 0.132233 
0.603727 0.529429 0.146505 0.574691 0.526077 0.211536 0.591967 0.434221 0.220441 
0.613239 0.625193 0.266298 0.603479 0.719788 0.0390318 0.555131 0.611441 0.0649144 
0.568719 0.735861 0.0983663 0.565918 0.69954 0.157221 0.599701 0.711366 0.268228 
0.590397 0.635705 0.174106 0.642868 0.642612 0.210787 0.572121 0.673305 0.224328 
0.596301 0.76031 0.15993 0.586543 0.667318 0.0961775 0.639596 0.789003 0.0390291 
0.561242 0.798259 0.0907988 0.541919 0.815304 0.189843 0.544982 0.833114 0.261831 
0.615761 0.775864 0.265248 0.516326 0.874644 0.210245 0.625006 0.71051 0.200434 
0.600439 0.823391 0.221611 0.584808 0.838336 0.0360098 0.560669 0.86285 0.0932533 
0.565412 0.911769 0.0397008 0.503198 0.945587 0.0315425 0.552027 0.910513 0.260439 
0.597974 0.968313 0.265549 0.528062 0.863937 0.14659 0.505575 0.925428 0.173542 
0.534724 1.00517 0.0510233 0.522369 0.918313 0.107325 0.473528 1.06055 0.188877 
0.467759 0.996799 0.154704 0.536826 0.989935 0.138723 0.517923 1.04809 0.269179 
0.571141 0.946059 0.192634 0.436227 1.06763 0.0347797 0.539842 1.12645 0.0335715 
0.572996 1.06626 0.0351735 0.503848 1.06706 0.0328709 0.552115 1.10858 0.095419 
0.522666 1.05119 0.104884 0.543425 1.00995 0.209453 0.502597 1.12676 0.205556 
0.537842 1.2351 0.0889923 0.573541 1.21224 0.0322878 0.562816 1.17811 0.123502 
0.523133 1.0929 0.152434 0.604355 1.08839 0.268672 0.539201 1.23928 0.159042 
0.533951 1.21377 0.238273 0.565549 1.13216 0.180583 0.558147 1.07443 0.214298 
0.553887 1.13868 0.259285 0.63909 1.20805 0.0433391 0.621155 1.21075 0.110682 
0.464031 1.21623 0.100679 0.642965 1.23837 0.226289 0.594858 1.20058 0.186376 
0.758007 1.18729 0.207978 0.679046 0.130724 0.040704 0.693405 0.119284 0.112609 
0.721563 0.0322001 0.192965 0.681948 0.134408 0.265516 0.698111 0.0938559 0.181209 
0.636908 0.262723 0.0387352 0.694755 0.315736 0.0396726 0.702652 0.225237 0.14935 
0.704125 0.267056 0.267353 0.640354 0.406817 0.174746 0.69482 0.200177 0.267451 
0.678238 0.327726 0.266703 0.6624 0.336876 0.137874 0.680543 0.459369 0.0424682 
0.659097 0.49561 0.0972836 0.652388 0.358155 0.0778346 0.685887 0.467421 0.158421 
0.648859 0.462612 0.216751 0.680923 0.278943 0.10461 0.730833 0.433422 0.199523 
0.690658 0.353921 0.201211 0.611195 0.646092 0.0351644 0.662181 0.526184 0.0349395 
0.635038 0.558515 0.0889905 0.595177 0.600295 0.120102 0.647802 0.608644 0.156548 
0.663671 0.684506 0.262135 0.637804 0.547299 0.269081 0.686752 0.583114 0.207133 
0.616676 0.579206 0.208214 0.672142 0.548094 0.149887 0.677211 0.516961 0.206238 
0.628183 0.716304 0.122588 0.657974 0.656319 0.0911117 0.696845 0.573264 0.0971591 
0.708212 0.62854 0.138201 0.717116 0.647937 0.207003 0.660693 0.824149 0.268702 
0.664718 0.672925 0.159297 0.62386 0.80342 0.116785 0.647158 0.87781 0.0390994 
0.689968 0.76283 0.0796809 0.707903 0.704005 0.0844732 0.67996 0.763754 0.149129 
0.636705 0.776751 0.203012 0.696581 0.716348 0.204742 0.613642 0.869795 0.265678 
0.582746 0.873199 0.181753 0.614718 0.970801 0.0372508 0.66862 0.985855 0.0763256 
0.629059 0.869586 0.106003 0.643195 0.927947 0.0889657 0.586868 0.909719 0.126179 
0.609871 0.968561 0.138978 0.634032 0.985643 0.209565 0.676012 0.850581 0.148002 
0.635953 0.923718 0.233804 0.643753 0.867094 0.206789 0.633237 0.91779 0.169156 
0.630481 1.10828 0.030065 0.641982 1.04128 0.0403392 0.694503 1.09358 0.0358782 
0.574037 0.95805 0.0912102 0.593798 1.02233 0.0955364 0.667408 1.04333 0.115855 
0.577871 1.03145 0.260392 0.613442 1.02659 0.16174 0.671511 1.03244 0.184329 
0.616596 1.09085 0.0912306 0.621474 1.14429 0.139007 0.696815 1.16649 0.0370849 
0.595856 1.15551 0.0660349 0.582747 1.07978 0.147133 0.623832 1.05694 0.217127 
0.741297 1.13308 0.0834035 0.635947 1.13369 0.223665 0.660963 1.09352 0.167494 
0.603724 1.19712 0.263608 0.749135 1.21383 0.033559 0.791545 1.18399 0.101001 
0.689439 1.17033 0.106142 0.672434 1.1994 0.16832 0.67731 1.18846 0.260159 
0.722244 0.0831925 0.0341634 0.75419 0.122042 0.0763772 0.718252 0.0488667 0.117246 
0.784023 0.0583988 0.125188 0.723141 0.0422336 0.26252 0.734843 0.105623 0.241979 
0.707736 0.242288 0.0350574 0.750966 0.182067 0.0391989 0.768629 0.265972 0.0304521 
0.73725 0.177546 0.11058 0.728118 0.15675 0.172957 0.755607 0.167438 0.2634 
0.774193 0.230456 0.156069 0.769646 0.2441 0.262122 0.730811 0.210258 0.212537 
0.702963 0.391295 0.0363958 0.764402 0.327673 0.0319016 0.720374 0.333356 0.10314 
0.746715 0.252644 0.0930375 0.732308 0.419111 0.0925096 0.764468 0.374264 0.126462 
0.703591 0.387164 0.140777 0.747672 0.320672 0.263464 0.73469 0.282366 0.198552 
0.697031 0.419849 0.260498 0.726543 0.51417 0.0858386 0.752841 0.463703 0.03781 
0.797348 0.485705 0.0861811 0.754439 0.469423 0.13381 0.789527 0.420071 0.169589 
0.674284 0.494422 0.266635 0.803889 0.511424 0.264173 0.773941 0.402111 0.260577 
0.740241 0.481137 0.247287 0.717951 0.548687 0.263651 0.669155 0.5998 0.039127 
0.694776 0.665209 0.0315333 0.736584 0.534176 0.174922 0.760984 0.582274 0.121147 
0.678613 0.61416 0.2674 0.752404 0.585459 0.217171 0.74316 0.622707 0.267491 
0.67348 0.724385 0.0330268 0.747634 0.749628 0.111358 0.758612 0.693059 0.0384582 
0.727897 0.755268 0.0312099 0.748908 0.656998 0.0969708 0.739862 0.694276 0.261127 
0.687457 0.817986 0.208674 0.726244 0.693385 0.145977 0.751026 0.745612 0.178149 
0.693769 0.745406 0.269539 0.701977 0.934806 0.0399796 0.7169 0.854352 0.0346142 
0.681183 0.826153 0.0846317 0.693942 0.889333 0.0957195 0.73922 0.810671 0.159683 
0.738894 0.839803 0.260086 0.734127 0.777486 0.228416 0.681261 0.886536 0.265523 
0.713144 0.878379 0.206511 0.687751 0.951696 0.268911 0.717667 1.02162 0.0398206 
0.725277 1.06999 0.0897277 0.726785 0.954284 0.107516 0.689467 0.949036 0.205717 
0.672005 0.976395 0.138612 0.693698 0.919157 0.150939 0.729999 1.01053 0.155739 
[...]
POINT_DATA 1274
FIELD FieldData 10
VELOCITY 3 1274 double
0.00044871650562 -0.00066956771589 -0.00034318367778 5.7496434671e-05 -0.00095009541193 -0.00015429950951 0.00012519840801 -0.00030853876643 5.6257015548e-06 
0.00054808530761 -0.0020617501151 0.0020793729235 0.00032164341287 -0.00093180300436 -0.00020545161553 0.00019466256501 -0.00047259250949 0.00016979638929 
0.00011966313544 -0.00020396331166 0.0003327710482 -0.00045416251399 -0.00051549938952 -2.7190335946e-05 0.00037836887987 -0.00092191934962 -0.00024863995843 
0.00032279578076 -0.00064397244015 0.00032566355308 0.00028734148176 -0.00073800416446 -0.00025402929242 0.00032754731099 -0.00092435068967 -1.1282881165e-05 
0.00029039319157 -0.00078292411588 1.2844788817e-05 0.00023531946514 -0.00072332644802 0.00041338180303 0.00025787471528 -0.00070622325687 -8.585699592e-05 
0.00030985145278 -0.00076871706335 -0.00045314161569 0.00044683192743 -0.0010621427751 -8.9243770673e-05 0.00031617467998 -0.0007980698724 3.0348543001e-07 
0.00070971611996 -0.0010829796607 -0.00014363623605 0.00026286755188 -0.00048900081774 -0.0004591239183 0.00039313647473 -0.00085622858942 0.00036235453113 
1.6321530642e-05 -0.00053263619718 -0.00046275106462 0.00015860595489 -0.00034462253971 0.00021208440686 7.9282701409e-05 -0.00038034760589 -0.00046766977242 
0.00034868479402 -0.00076699851847 -0.00012573737946 0.00023546460344 -0.00052743066874 0.00025191140762 0.00012542127955 -0.00031078217381 -3.7546575637e-05 
0.00038288467712 -0.00090222651909 -2.0325034633e-06 0.00056159168345 -0.00088684393833 -0.00046829203436 0.00028570623512 -0.00057827820423 -0.00049794205219 
8.3671413911e-05 -0.0013480146638 1.5581470285e-05 0.00020001116411 -0.00050040153619 -2.2618013084e-05 0.00023740079094 -0.00056208748738 -0.00017590103358 
0.00068453097808 -0.0012034121748 -0.00048975648653 0.0008334282174 -0.0011331096441 0.0003363823992 0.0002502137013 -0.00056568205903 -0.00015513329297 
0.0007472555772 -0.0010235335968 -7.0252210105e-05 0.00021819449592 -0.00052247610295 -0.00020427402059 1.511625629e-05 -0.0008116373914 -0.00015303836871 
0.00011858567108 -0.00026122609435 7.8663552933e-06 0.00059382124385 -0.0012248547422 -0.00041126229903 0.0001902702843 -0.00074596829839 -0.00016139831108 
0.00020804823745 -0.00056365604658 -0.00026012594828 -0.00027249780777 -0.00029076125589 -6.9490039719e-06 0.0002141914689 -0.00056672670351 -0.00021695110459 
0.00070028967547 -0.0011779876651 1.471572576e-05 0.00010716117932 -0.0002596536108 -0.00057337149172 0.00022292561489 -0.00056193358843 -0.00018028862241 
-0.0020074121948 0.0019934388669 6.3623178604e-06 -0.00010807260498 -0.00064941046369 0.00011610885129 0.00060195710825 -0.00071420919054 0.00053229132893 
-0.00025866698321 0.00030885674108 0.00065120300025 0.00015074754684 0.0010466610628 0.00074423486734 0.00039159475546 -0.0011019948529 0.00016006314713 
0.00020333284744 -0.00051743253347 0.00048879728196 7.8754138495e-05 -0.00013540062171 -2.6803575874e-05 4.6747687491e-05 -9.6227284694e-05 -1.4659450341e-05 
0.00022672423288 -0.00060026695551 0.00069853869246 0.00039881175639 -0.00094275435844 0.00016195203197 -0.00085520764985 -0.0010862191242 0.00071815092262 
0.00028744729988 -0.00042663880936 5.022707986e-05 0.00051580449057 -0.00056716292011 -0.00047370606501 6.3655907457e-06 -0.0011543798895 2.4968516748e-06 
0.00024685619858 -0.00060652606536 -8.1809374598e-05 0.00073103024735 -0.00036369700532 -0.00011812117218 0.00023240580842 -0.00063134615601 0.00032872289006 
-0.0001416436015 -0.00060509591051 0.00060372413505 0.00056094905459 -0.00053800137127 -0.00036441922142 0.00071243068007 -0.00034976848698 -0.00072823139366 
-0.00044207959638 -0.00080529814712 -7.2959814294e-05 0.00023792783757 -0.00037487751791 -0.00010987842685 0.00040216104102 -0.00085383507572 9.1688862402e-05 
0.00018354855761 -0.00091327429656 -0.0005358157798 -0.00055641444901 -0.0005028160887 -0.00069175432256 0.00020092052988 -0.000714316601 -0.00012500138796 
0.00078549908914 -0.0014048022947 0.0006548763268 0.00060391735364 -0.00095244581804 -2.8884667721e-05 0.00040723774788 -0.00086874832364 -3.6097154551e-05 
0.00030680065399 -0.00076188253284 -8.584221911e-05 0.0008313678846 -0.00062509497079 -0.00046067635153 0.00045315134316 -0.0010410707877 -1.4431714302e-05 
0.00028459628195 -0.00066346663293 -6.8833085975e-05 0.00035145993553 -0.00061252889513 -3.4443005263e-05 0.00047240440571 -0.0012291502982 -8.0837282244e-05 
-0.00094456793714 -0.000531757336 -0.00010715234811 0.00013952760224 -0.00074680218821 0.00013338954679 -0.00026202336225 -0.00090896874182 3.0528167706e-05 
-0.00024731599414 -0.0011246321937 -0.00079776435782 0.0002734745492 -0.0010075912878 7.5344860782e-05 0.00014838845237 -0.00065993120539 -0.00012159512679 
0.00058749011673 -0.00086637382837 -0.00017354542761 -0.0010666570456 -0.00096801319866 2.2979544115e-05 -0.00026594726417 -0.0010778758374 -0.0001109441334 
0.00042312111186 -0.00042277656407 -4.7127822081e-05 -0.0001806518783 -0.00099168364741 -7.2295799691e-05 1.228974635e-06 -0.00075387930605 -0.00016913296244 
0.00017444254278 -0.00088162429178 5.0479361285e-06 0.00087992436515 -0.00085637648259 0.00042834322064 0.00059278308111 -0.00040020504659 0.00031727305715 
-0.00048890196936 -0.0011000888931 0.00049129603266 -0.0004439935591 -0.0008551732774 0.00018138450645 -6.3346113269e-05 -0.0011249309161 2.3574347353e-06 
0.0009011673485 -0.0018591941581 -0.00029553225276 0.00010298192901 -0.00084737589715 3.504253452e-05 0.00018236228967 -0.0010580110109 0.00014950849328 
-2.3108535264e-06 -0.00053402245508 -2.8332201996e-05 0.00012233027468 -0.00054268240541 -0.0001406560962 0.00023693873591 -0.00061339182 -0.00016476868844 
0.00026568217817 -0.00036196611623 3.0117458989e-06 0.00024336645231 -0.00024535564264 -7.8117872426e-06 -0.0007260648718 -0.0010573949113 0.00059955588942 
0.00079575477504 -0.00099997261091 -1.8029766912e-05 0.00049659059855 -0.00089483423165 0.00053899652199 0.00037786489587 -0.0010762472335 0.00037911939239 
-0.00023016741445 -0.00045184992003 1.2980463863e-05 0.00067606935397 -0.0016788775814 -0.0010099844595 -0.00077926688958 -0.0013697888358 0.00011001703765 
-0.00013430507136 -0.00065062297223 -1.6361089478e-05 -0.00031727662711 -0.0006373193941 -2.4649560859e-05 2.7143020784e-05 -0.0010631239718 0.00023328334491 
-0.00028774530908 -0.00045253630533 6.9762489078e-05 0.00078609745648 -0.00093084726981 0.00020148693284 0.0010122033822 -0.0011888023465 -0.0018779244899 
0.00072345081624 -0.0010599011224 -5.7108771295e-06 0.00046875921036 -0.0013024145151 -0.00011281378212 0.00030074950361 -0.00060933179539 -1.2767213337e-05 
-0.00016405070365 -0.00043775104322 -2.7849750526e-05 2.1397021115e-05 -0.00057779389815 -0.00011260256614 -1.6795484448e-05 -0.00063106342684 9.2965888121e-05 
-0.0011489904158 0.00012162410107 -7.2632985519e-06 0.00067042076092 -0.00097120405301 8.0844636512e-06 0.00021496536814 -0.00060879394757 -0.00012879618233 
-0.0002103024936 -0.00025351032857 -0.00071648404122 0.0002117306409 -0.00074528099456 -0.00013681345533 0.0010574136768 -0.00093455545341 -4.2685089024e-06 
0.00040074442403 -0.0010060769129 -0.00027507478708 -3.1143989697e-05 5.9782194017e-05 0.0006740038515 -0.00044911953371 0.001114025035 -0.00026978830733 
-0.00021974577921 9.4623075801e-05 0.00057889139717 0.00067190840279 -0.00074439748013 -0.00021564120138 -0.00014170329284 0.00029036308094 0.00078368049775 
0.00014235001013 -6.5033745481e-05 0.00021889538387 5.1607062633e-05 -0.00037611888587 0.0010868019818 -0.00028849011532 -0.00075864076914 -7.3757777634e-06 
-0.0012575690358 -0.0014629990342 -0.00026404011546 0.00011272672712 -0.00030254881408 6.929268371e-05 0.00070471560791 -0.0011734055623 8.5680337552e-05 
-0.0002453924675 0.00026463889634 0.00046511268808 0.00022602536662 -0.0010813829816 0.00092201891135 -0.00037663152082 -0.00029097722262 -0.0014643874184 
0.00046271704836 -0.00081681726714 -4.9595260833e-05 -0.00059815231234 -0.00073168740708 -1.9198084399e-05 0.00085478945473 -0.00068216911773 -0.0010412583839 
0.00058941245909 -0.00052374460625 0.001124980745 0.00050730587618 -0.00087499864477 -0.00024474387699 0.00054651527154 -0.00040454736138 -0.00021606262255 
0.00029888721269 -0.0012295486647 -3.755385469e-05 0.00039489371246 -0.0010932167258 0.00019088628653 -2.5702320755e-05 -0.00041645773889 1.2652565606e-05 
0.00012183436296 -0.00052934524422 -6.8242738492e-05 0.00041523772395 -0.0012327118944 0.00085145979214 1.5239442949e-05 -0.00089412206129 6.6228120915e-05 
0.0007379980763 -0.0011376247826 0.00027955929864 0.00055606653727 -0.00078919452727 3.0601184733e-05 0.00013582632395 -0.0011755249374 0.00020437736548 
-0.00054248143755 0.00011278713254 0.00030251657456 0.00043998873475 -0.00014367517902 -0.00028687773195 -0.00057292038132 -0.0006775057343 0.00013599117869 
0.00015427450249 -0.0001497315826 0.00025874687837 0.00038218621983 -0.00050864156124 -0.00016448402836 0.00044666286653 -0.00076346135621 2.3481936887e-05 
5.559609755e-05 -0.00066970885419 1.0343748686e-05 -0.00014104296508 -0.0010213528133 0.00033585274049 0.00023771018897 -0.0010427097212 0.0006311657393 
0.00044417031684 -0.0011504499785 0.00034223129459 -5.4366405817e-05 -0.0002037470952 -0.0012050475159 0.00011056896833 -0.0017348768643 -0.00024475696593 
0.00080825501752 -0.0022786214953 9.5667754522e-05 0.0007274905025 -0.0017242492509 -1.3241385467e-05 -0.00029746389641 -0.00043478692142 -3.7620490108e-05 
4.7937030972e-05 -0.00088046438237 -7.0255182554e-05 0.00016374911477 -0.00082592141793 1.1019016183e-05 0.00085584351885 -0.0013936736148 -0.00081779813175 
0.0006075378977 -0.001571608425 -3.3988492176e-05 -5.7126518881e-05 -0.0016706568275 -0.0011934781607 0.00015170072655 -0.00082863930836 0.00056372963181 
0.00047997091874 -0.00062509781269 0.00028865370151 0.00022640020849 -0.0013344571734 -0.001258842167 -2.3901654837e-05 -0.0010948855716 -0.00011003415735 
-0.0011526033817 -0.0021770487096 -0.0010267317718 8.0460974787e-07 -0.00065880382049 0.00016077657845 -0.00066755103921 -0.0016125470307 -1.065085087e-05 
-1.2027378895e-05 -0.0012758697956 7.6984203966e-05 -9.0204123192e-05 -0.0019419014053 1.8567383643e-05 -0.00012940422024 -0.00068599842444 0.00014826663727 
0.00023922048898 -0.00096506752246 -0.00049118821661 -0.00075292358983 -0.0019793981122 -0.00089798957262 -2.310936097e-05 -0.00076411466792 0.00011476216606 
0.00045230912422 -0.00024318363993 -0.00020296719412 0.00056751774535 -0.0005540259249 -1.0537107606e-05 0.00078442181122 -0.00078600817734 -0.0012679552137 
-0.00074589035449 -0.0010232925888 -0.00047411176576 0.00015035545185 -0.00087666488462 7.0675658878e-05 -0.00015923607081 -0.0011917978361 -0.00012882053429 
-0.0010885515379 -0.0013894277157 -0.000719048547 -5.0835193882e-05 -0.0022396084123 -0.00050206942314 -0.0014840225438 -0.0018973862415 -0.00026384314476 
-0.00062917048561 -0.0014637754501 0.00085062913859 0.00060852268628 -0.00073154658494 -0.00015471737123 0.0010314175011 -0.00069195212839 -3.4048691702e-05 
0.00070771925265 -0.0011279173561 3.0072768267e-05 0.0025125683768 -0.0020994182835 -0.0038749929573 -0.00072358899156 -0.0019456226475 -9.4397916243e-05 
0.0010680554155 -0.0046169352707 0.00085669412372 -0.00014158284201 0.00032671328298 -0.00060801453815 -0.000281675677 0.00061425220415 0.000232839919 
-5.8929991822e-05 6.4339605199e-05 -0.00017067833395 3.0188301386e-05 -0.00091232072682 -0.0004530944429 -0.00021143625364 0.00058674205611 0.00035340527444 
0.00031906963253 -0.0002871416676 0.00010580088228 0.00078113395612 -0.00032721029024 4.2743652707e-05 -0.00022428499351 -4.4286846469e-05 0.0010191294583 
0.00010739633533 -0.0008118951465 -0.00076805980226 -0.00021176276529 -0.00056601529102 -5.3638853624e-05 -4.6933017594e-05 -0.00040251017954 -2.7589626361e-05 
0.0021590547338 0.00078337671736 0.00047678986896 -0.00043142046322 -0.00046352288309 -0.00011269357844 -0.00038798981676 -0.0011351929255 -0.00065426545413 
-1.2513330992e-05 -0.00045341028617 -0.00043930216318 -0.00027218066339 -0.0011233509061 -0.0003090526469 -0.0001589881246 -0.00018832723204 -0.00016242245008 
0.00067047904414 -0.0006689346826 0.00012576411325 0.00094399729681 -0.00073597061892 -0.00023767420519 -0.00023455923255 -0.00073023807546 -0.0003494550456 
-0.00017982958651 -0.00037485730205 -0.0002186352951 0.00057184215909 -0.00086033288216 0.00026555722925 -0.00096824921988 -0.0010748190506 -6.8637890855e-05 
-0.00018898364813 -0.00056535478494 0.00070990928462 0.0002806782972 -0.00052993634084 -0.00050555139666 -2.6869651211e-05 -0.0015202745941 0.00058895140264 
0.00017528473462 -0.00069655922463 2.5537312156e-05 0.00020733734036 -0.00083656043472 2.0943479888e-06 0.00012208097706 -0.00049506218904 8.0247990139e-05 
6.2915704635e-05 -0.00051379437358 0.00070144506412 0.00064312420678 -0.00057935587339 -8.9063445302e-05 0.00026718882522 -0.00049472944053 6.2580776697e-05 
0.0010740047837 -0.00070532726669 -0.00042206254864 0.00021357316219 -0.0016184774674 0.00046763612175 0.00057415521211 -0.0012877369026 -0.00050707663583 
-0.00016312876031 -0.00118516728 0.00019163767698 0.00014860791836 -0.00055091965749 -0.0002964432543 0.00020516244671 -0.00091212535176 6.9804182486e-05 
0.00021865848259 -0.00068690578594 0.00035491085945 0.00038267216771 -0.0011362555571 0.00019831586435 0.00076263230899 -0.0014809481714 -1.604677117e-05 
-0.00061360510055 -0.0011986746414 -0.00043777152522 0.00014512102776 -0.0015832285607 0.00049984827086 5.5496775955e-05 -0.0012818020744 -0.00030675024355 
0.00031375709168 -0.0014800784878 -0.00025204756287 0.00019193460569 -0.00061598057343 0.00028272941818 5.6365740622e-05 -0.00097735272156 1.5620620906e-05 
0.00047872985878 -0.0014857451793 2.2062737615e-05 0.00031899356532 -0.001786581839 -2.043000764e-06 -1.8504497782e-05 -0.0010158506458 0.00013239220158 
0.00093379352901 -0.00083255932363 7.6733787125e-05 0.00083781704943 -0.00086327684975 -0.00054436857159 -0.00016716844956 -0.0016320407832 -0.00080249442411 
-0.00015235217256 -0.00082931581795 4.8583797092e-05 0.00068081591202 -0.0004241512424 0.00053889375659 0.0014754500773 -0.0012085630376 -3.9192895653e-05 
-0.00037082539279 -0.00089334488708 6.3076205598e-06 -0.00056554636619 -0.0020645942046 0.0024739902253 -0.0007638418375 -0.0022235099412 3.6936759551e-05 
-0.0003477087217 -0.00047948543833 2.6862570926e-05 -0.00011270465228 -0.0016353474342 -0.00041296150141 -0.00037019426715 -0.0014007821866 -5.2836588319e-05 
0.00066895370463 -0.0018306300897 -0.0003870480905 0.00042921629574 -0.0014570028292 0.00023314692398 6.4265416619e-05 -0.0009047010958 4.7558171481e-05 
-7.0470112517e-06 -0.00076261016347 0.00025284749946 0.00023050302412 -0.0012727134722 0.00012985900156 0.00066483089384 -0.00095713169739 1.18340771e-05 
-0.0001678892175 -0.0012119187428 -0.00019287388107 0.00052120868462 -0.00098155248621 -0.0006434390809 0.00012569896341 -0.001469470515 2.2999933712e-06 
0.00063896246465 -0.0017419790588 -0.0021353815698 -0.0010515117502 -0.0023446600604 -0.00085818118244 0.00031515691293 -0.00070576293742 -2.4720584078e-05 
0.00012595782587 -0.0013347576478 0.00016498147141 -0.002080730422 -0.00051738803272 -0.0011607182444 3.7392557607e-05 -0.00095569996264 0.00010203687924 
-0.0012234072899 -0.00091171422325 3.8223102822e-05 -3.5592109564e-05 -0.0014003089719 1.3367407097e-05 -0.0064876478351 -0.0029008386302 -0.0012095423278 
0.00074246821974 -0.00043229155224 2.2810929479e-05 -0.00080566600462 -0.00047838686229 -0.00042182687337 -0.0014508122253 -0.0027289103651 -0.00082539962694 
0.00050306403615 0.00059399303034 0.0001739201242 -0.00028736475623 -0.00018049398779 0.0002490886455 -0.00025197417952 0.00069905645663 0.00070794584765 
-0.00020081830749 -0.00072827403251 0.001194135799 0.00030742725334 -0.00083897637037 1.1752784186e-05 0.00088399767148 0.00051614483743 0.00097589364775 
-5.8793271552e-05 0.0002436339813 0.0016512390497 0.00031962856815 -0.00058493309032 -0.00043451503716 0.0013566838602 6.2655360467e-05 -0.0013206750508 
-0.00026652349518 0.00038220413221 -3.4826830035e-05 -0.00030576655366 0.00038581572196 -0.0013416878893 0.00045059638747 -0.00015119501551 -1.3890874235e-05 
2.0279647053e-05 -0.00044923084889 -0.0009121182716 -0.00031906012915 -0.0016902953289 -0.00057784955974 0.0011233453068 -0.0010764771836 0.00030256340556 
-0.00015011281995 -0.00010686458325 -7.8429755278e-06 0.00088345660887 -0.00021207737287 -0.00065832195797 -0.00036024988923 0.00032394617916 0.00041021655441 
0.00089813879642 -0.0010692166815 -0.00018691486839 0.00027317999713 -0.0005162498916 -1.8464967822e-05 -3.9289520767e-05 -6.7342525358e-05 0.00061159912329 
-0.00036414920496 0.00059501054862 0.00057936999687 0.00025461469919 -0.00060616688792 5.7154328226e-05 0.00014995479618 -0.0011499732917 -0.00017053424831 
-0.00016863766143 0.00051650635521 -4.9529844462e-05 0.00020975559739 -0.00063270514344 0.0010500870132 -0.00075758204981 -4.0782772535e-05 0.00016829854075 
-0.00018245256839 -0.0014945899253 0.00029256730207 0.00016221610374 -0.00080392311114 0.00094590622646 0.0014036936555 -0.00084853656308 0.0011256097898 
0.00066106557941 -0.00020537324031 7.3222478931e-05 0.00033036864303 -0.00011972036295 5.1088457227e-05 -0.0004295347106 -0.0011824424976 -0.00014786662668 
0.0005595013562 -0.00021478394965 -0.00065305710303 0.00057113074502 -0.00032660242692 -1.5468231643e-05 -7.0865992986e-05 -0.0012063661752 -2.8244867329e-06 
-0.00043382946271 -0.00084944025542 0.00015200747886 0.00057342530085 -0.0011064034207 0.00051384397294 0.00011941992033 1.601213531e-06 0.00088953537348 
0.00025018488373 -0.00033320459045 7.2416472415e-06 0.00026729360283 -9.2930675147e-05 -0.00047545493085 0.00033293076659 -0.00079178424355 3.2526501853e-06 
9.8241590413e-05 -0.00069849209797 -0.00029821360195 0.00033050010463 -0.0012266495047 0.00044331634357 -0.0002700661803 -0.0013341993812 -3.0456891198e-05 
-0.00011513632279 -0.001383105462 0.00023545010289 -0.00025570175833 -0.00079523620389 -8.5065252025e-06 0.00051080299135 -0.00086805789232 -0.00010127464174 
0.00034396312227 -0.0012649480538 4.2162259775e-05 0.00046106388938 -0.0012085070661 0.00048778950374 0.00041808061627 -0.0010118718096 0.00065626079215 
0.00036974126841 -0.00088188677292 1.0532285e-05 -0.00010777059826 -0.00060566400287 -8.1921635352e-05 0.00060558435638 -0.0014907977684 -2.0552627794e-06 
-6.6913490907e-05 -0.00074100558543 -0.00067111871219 0.00072536424674 -0.0015037156885 -0.00020429962203 -0.00038730396988 -0.0010071878308 -0.00070651040764 
-0.00097177508082 -0.0016016167659 2.4355273817e-07 -0.00067237546198 -0.0021104841537 0.0008794438598 -2.4288580345e-05 -0.00085122527549 -0.00036819159131 
-0.00051515286699 -0.00067393832896 0.00036801033358 0.00068244295059 -0.00071135904006 -1.1781142272e-05 2.6364333885e-05 -0.0012546337174 1.61406585e-05 
0.00042148463339 -0.0013678144921 -9.1682091933e-06 0.0010363714339 -0.0024040682309 0.00010998668735 -0.00036554357494 -0.0019000095323 1.5135771945e-05 
-0.00014509815333 -0.00081014025028 -3.1071976565e-05 -0.00088458233807 -0.00076208127291 -0.0004304121357 0.0011313186943 -0.0025590548297 -0.00064431039309 
-9.4158695723e-06 -0.00084362135233 -7.1647350911e-05 0.0001971036782 -0.0017207476136 2.9864417513e-05 -3.6512571613e-05 -0.0019194048775 0.00028836646081 
-0.00038865804323 -0.0016050383155 0.00088817393034 -9.3883906304e-05 -0.0014709670132 -2.9365933746e-05 -0.0010658764891 -0.0021680619284 0.0024990739191 
1.306576424e-05 -0.0018732086476 -2.7292787436e-05 0.0047998087514 -0.0012674718323 0.0012565473296 -0.00014938331323 -0.001490507398 -0.0001799992362 
-0.00011129207706 -0.0030181859311 -3.930193152e-05 0.00083483356788 -0.00099440545011 -0.0001625978 0.0041716260849 -0.00099904376723 0.00022962753152 
0.00014607696165 -0.0014167139026 0.00020876910602 0.0005318306809 -0.0011435571583 -0.00036868436325 -0.0023767574667 -0.0043104096088 3.037836517e-06 