# vtk DataFile Version 4.1
vtk output
ASCII
DATASET UNSTRUCTURED_GRID
POINTS 1274 float
0.513099 0.553585 0.0379538 0.469594 0.651002 0.105217 0.488039 0.597605 0.268458 
0.494839 0.587366 0.0987391 0.423729 0.755817 0.0323156 0.424445 0.768469 0.119703 
0.475614 0.637309 0.212926 0.45953 0.669905 0.268648 0.394068 0.84477 0.0588757 
0.398424 0.812708 0.164886 0.445989 0.699137 0.214874 0.432861 0.738681 0.265757 
0.362998 0.9024 0.0319696 0.343775 0.968152 0.0520652 0.381327 0.878406 0.146404 
0.394917 0.844127 0.231828 0.345433 0.95734 0.259988 0.314062 1.03897 0.0387204 
0.390677 0.913619 0.0865721 0.447903 0.898975 0.110122 0.332298 0.996042 0.130025 
0.40884 0.914939 0.218473 0.310391 1.03779 0.265121 0.352024 0.929454 0.187712 
0.281636 1.10179 0.0485849 0.328062 0.987604 0.200746 0.286576 1.1083 0.260298 
0.257799 1.16233 0.0336643 0.357228 1.11551 0.103845 0.301896 1.06887 0.109322 
0.289785 1.25162 0.0382188 0.302912 1.04527 0.200292 0.283605 1.1004 0.172349 
0.33328 1.25527 0.0925223 0.385078 1.15758 0.037626 0.275621 1.14829 0.110226 
0.421659 1.14972 0.10639 0.260754 1.15039 0.208513 0.340067 1.10683 0.211282 
0.218673 1.25617 0.0332148 0.320089 1.18579 0.054169 0.319586 1.15664 0.173658 
0.244796 1.1989 0.164508 0.287436 1.18302 0.26484 0.239125 1.222 0.0935926 
0.37216 1.23139 0.0356631 0.236542 1.23024 0.236395 0.215774 1.25653 0.149558 
0.540963 0.470244 0.0302074 0.611639 0.295395 0.0942445 0.595602 0.358574 0.121791 
0.596909 0.347631 0.198033 0.57614 0.388758 0.2665 0.610248 0.314026 0.262154 
0.540862 0.469614 0.209718 0.508779 0.55767 0.218729 0.603453 0.328755 0.0358989 
0.566616 0.417658 0.159168 0.484046 0.623945 0.0378785 0.609097 0.474886 0.0470466 
0.546029 0.474872 0.0985053 0.549589 0.448088 0.268476 0.565182 0.571597 0.26277 
0.52749 0.512277 0.159563 0.550797 0.668565 0.0308612 0.445399 0.711449 0.0787515 
0.517533 0.697768 0.106463 0.471658 0.75333 0.178268 0.551306 0.548 0.101677 
0.523103 0.658249 0.266703 0.446317 0.697019 0.14583 0.415006 0.777437 0.214461 
0.501027 0.680789 0.169848 0.554654 0.577234 0.16828 0.494185 0.780038 0.092192 
0.535616 0.760426 0.146361 0.459078 0.814566 0.0363743 0.508416 0.724332 0.039754 
0.484481 0.817786 0.150775 0.436995 0.835718 0.113038 0.364625 0.893981 0.269731 
0.49941 0.769347 0.260789 0.538756 0.6174 0.219144 0.563397 0.747621 0.22025 
0.467917 0.815547 0.213626 0.506905 0.705724 0.226444 0.459917 0.889273 0.0399636 
0.52041 0.853583 0.0354222 0.535808 0.790938 0.0326235 0.454028 0.875639 0.177651 
0.495438 0.849793 0.0951767 0.464548 0.870036 0.260663 0.438671 0.803581 0.269008 
0.417147 0.951789 0.0373637 0.373541 1.08938 0.0325886 0.466043 1.00454 0.0331266 
0.400662 0.996627 0.0950616 0.415876 0.948013 0.150931 0.468526 0.964309 0.0913796 
0.485383 0.940787 0.262651 0.419652 0.97244 0.261479 0.535112 0.983035 0.2689 
0.460501 0.951501 0.203277 0.383795 1.0242 0.0323959 0.365514 1.05438 0.0848585 
0.463387 1.03219 0.0902326 0.362827 1.06295 0.158344 0.395549 1.00461 0.196838 
0.441733 1.05101 0.264238 0.377166 1.02905 0.267487 0.483236 1.00326 0.236519 
0.457208 1.13595 0.0385422 0.470506 1.08311 0.123103 0.427429 1.04192 0.139073 
0.360916 1.09026 0.269156 0.52676 1.17841 0.175592 0.489823 1.10205 0.267785 
0.407783 1.08819 0.213351 0.429773 1.13354 0.264219 0.445443 1.12024 0.166913 
0.35883 1.16038 0.260112 0.511124 1.18699 0.0383364 0.498704 1.14675 0.120084 
0.437111 1.20571 0.0341932 0.369886 1.2015 0.100977 0.381222 1.13327 0.166051 
0.338876 1.23675 0.260951 0.453306 1.16749 0.20779 0.402624 1.20645 0.221597 
0.469315 1.19086 0.26612 0.48748 1.25495 0.0362705 0.312696 1.21228 0.137342 
0.460463 1.24896 0.22567 0.300338 1.21276 0.203975 0.474865 1.21172 0.169833 
0.373388 1.22826 0.163618 0.639479 0.231781 0.179625 0.564043 0.412991 0.0316542 
0.660066 0.192867 0.0570565 0.660712 0.287802 0.213356 0.640256 0.240908 0.263509 
0.668865 0.174641 0.207387 0.642535 0.223905 0.115715 0.631336 0.405203 0.0363468 
0.592059 0.42257 0.0893522 0.527054 0.509721 0.265847 0.605872 0.486416 0.263 
0.617309 0.291279 0.159067 0.639457 0.377323 0.246422 0.613861 0.45998 0.136043 
0.58823 0.546368 0.0375218 0.660605 0.423082 0.10132 0.53436 0.635871 0.131526 
0.605148 0.528404 0.146866 0.576201 0.524048 0.211881 0.592776 0.433174 0.220374 
0.613485 0.62343 0.266297 0.603755 0.717486 0.0390313 0.555322 0.60969 0.064584 
0.569876 0.733369 0.098924 0.566647 0.697373 0.157958 0.600033 0.709547 0.268227 
0.592011 0.633919 0.174965 0.644838 0.639574 0.211348 0.571808 0.671764 0.224497 
0.597373 0.758004 0.159972 0.587224 0.666217 0.0957603 0.639209 0.787042 0.0390312 
0.561872 0.795787 0.0909516 0.541151 0.813539 0.189964 0.545389 0.831582 0.261832 
0.616388 0.773968 0.265252 0.515503 0.872565 0.211203 0.625576 0.708211 0.201423 
0.600438 0.820372 0.221439 0.585005 0.836923 0.0347554 0.561023 0.859228 0.0929614 
0.565958 0.90873 0.0397015 0.504004 0.942954 0.0315439 0.552185 0.909001 0.260437 
0.598466 0.966535 0.265548 0.528629 0.862226 0.146364 0.506009 0.922473 0.17143 
0.535739 1.00235 0.0512739 0.522852 0.915201 0.105243 0.473177 1.05851 0.190162 
0.469004 0.995084 0.155166 0.537679 0.988158 0.137609 0.518255 1.04592 0.269178 
0.570614 0.944055 0.192189 0.436571 1.06569 0.0348069 0.53866 1.1236 0.0335696 
0.573225 1.06386 0.0351738 0.504168 1.06381 0.0328709 0.552249 1.10713 0.0955278 
0.522909 1.04959 0.104366 0.542644 1.00782 0.209058 0.503117 1.12481 0.204804 
0.538893 1.23334 0.0892201 0.574493 1.21089 0.0322883 0.5641 1.17595 0.122878 
0.522836 1.08999 0.153036 0.605073 1.08647 0.268672 0.540362 1.23712 0.15929 
0.534104 1.21093 0.23764 0.567122 1.12892 0.179833 0.556981 1.07232 0.214735 
0.553624 1.13579 0.259467 0.640138 1.2066 0.0427108 0.622307 1.20884 0.110098 
0.465181 1.21402 0.100803 0.647632 1.23497 0.221438 0.595618 1.19762 0.186293 
0.773229 1.16657 0.20581 0.678945 0.13098 0.0400516 0.693162 0.119861 0.113891 
0.721562 0.0322014 0.193181 0.682152 0.133921 0.26551 0.697711 0.0948276 0.182646 
0.636851 0.262061 0.0387332 0.696427 0.315317 0.0396638 0.702021 0.225482 0.150702 
0.704567 0.266002 0.267353 0.640155 0.405655 0.173696 0.695447 0.199607 0.267448 
0.678836 0.326746 0.266696 0.663244 0.336108 0.138002 0.679095 0.457713 0.0410998 
0.657199 0.494216 0.0969203 0.651579 0.355371 0.0775667 0.685561 0.466436 0.157661 
0.650164 0.460563 0.216888 0.682101 0.278478 0.104428 0.729433 0.411927 0.197838 
0.690852 0.353788 0.201452 0.611871 0.643832 0.0351632 0.660881 0.524694 0.034936 
0.635673 0.55812 0.0892449 0.595607 0.600053 0.119889 0.64827 0.605973 0.15676 
0.664085 0.682882 0.262131 0.638929 0.545187 0.269081 0.687452 0.581546 0.20732 
0.617385 0.57784 0.209291 0.673864 0.545932 0.15019 0.678402 0.515323 0.206382 
0.629641 0.714221 0.122726 0.658403 0.653109 0.0924943 0.697614 0.57226 0.0976139 
0.709138 0.626149 0.140333 0.717079 0.646703 0.206512 0.661576 0.822013 0.268703 
0.665747 0.671175 0.160243 0.624354 0.801735 0.117093 0.647968 0.875291 0.0391 
0.689562 0.760348 0.07937 0.708239 0.700912 0.0859823 0.680828 0.762219 0.14897 
0.637702 0.774403 0.203141 0.697076 0.715296 0.205099 0.613557 0.866641 0.265677 
0.582553 0.871054 0.182788 0.614944 0.968027 0.0372507 0.668534 0.983648 0.0765354 
0.630976 0.867788 0.106379 0.644159 0.926068 0.0883266 0.58706 0.906748 0.125125 
0.6101 0.966099 0.138895 0.635158 0.983492 0.209858 0.677994 0.847828 0.147855 
0.6356 0.921355 0.233632 0.643454 0.863334 0.207637 0.632502 0.915073 0.169035 
0.630938 1.1071 0.0300621 0.642155 1.03855 0.0394317 0.694618 1.09098 0.0358778 
0.574957 0.955593 0.090615 0.594946 1.01976 0.0955172 0.667634 1.04154 0.115463 
0.57831 1.02966 0.260407 0.614111 1.02402 0.161863 0.672416 1.03002 0.183789 
0.61648 1.08866 0.0907948 0.622898 1.14228 0.138187 0.69708 1.16389 0.0370852 
0.595374 1.15282 0.0646425 0.582093 1.07607 0.146044 0.624106 1.05494 0.217003 
0.741663 1.13065 0.0834276 0.636513 1.13182 0.223608 0.661217 1.09117 0.167646 
0.603602 1.19412 0.26361 0.749651 1.21095 0.033559 0.791723 1.18019 0.101297 
0.690191 1.16856 0.106142 0.673271 1.19721 0.168536 0.677321 1.18631 0.261054 
0.721659 0.082921 0.0341655 0.753519 0.121297 0.0768751 0.71799 0.0495032 0.119404 
0.783979 0.0580419 0.126651 0.72357 0.0411879 0.262472 0.735614 0.10499 0.243464 
0.707658 0.241577 0.03506 0.750422 0.181027 0.039199 0.768253 0.266008 0.0304516 
0.7362 0.178643 0.110579 0.727266 0.15635 0.172464 0.756227 0.166853 0.263423 
0.773834 0.2296 0.154896 0.7698 0.242061 0.262797 0.731872 0.209222 0.212734 
0.703368 0.390993 0.036393 0.765919 0.327818 0.0314116 0.72106 0.333256 0.103432 
0.747532 0.251429 0.0925226 0.733636 0.417765 0.0925238 0.764852 0.373297 0.127829 
0.704024 0.387365 0.141246 0.748252 0.319508 0.263464 0.733521 0.281102 0.197296 
0.697106 0.420512 0.260496 0.725792 0.512139 0.0879442 0.751379 0.463384 0.0378106 
0.796401 0.483372 0.0865806 0.75511 0.468441 0.13604 0.790647 0.418754 0.170901 
0.675661 0.492484 0.26665 0.804319 0.511743 0.264173 0.773098 0.39918 0.260576 
0.741457 0.480651 0.245869 0.718311 0.547552 0.263651 0.670227 0.598041 0.0391195 
0.693503 0.664319 0.0315319 0.737875 0.531923 0.176273 0.761679 0.580019 0.122233 
0.678931 0.612846 0.267401 0.75319 0.585007 0.216437 0.743502 0.621184 0.267491 
0.673474 0.72395 0.0316037 0.74768 0.747241 0.11196 0.757854 0.690924 0.0385744 
0.728166 0.754396 0.0312106 0.747799 0.654639 0.0972088 0.740294 0.692219 0.261129 
0.688568 0.815494 0.208815 0.72757 0.690975 0.14731 0.751868 0.744145 0.178761 
0.694506 0.743621 0.269539 0.702135 0.932908 0.0399801 0.717727 0.851772 0.0346093 
0.681725 0.823472 0.0843589 0.694335 0.886732 0.095171 0.74031 0.808927 0.159188 
0.738641 0.836343 0.260085 0.733046 0.773294 0.230001 0.681214 0.884696 0.265523 
0.712704 0.876554 0.207818 0.688105 0.949813 0.268912 0.717829 1.01885 0.0398209 
0.725872 1.06746 0.0894216 0.728458 0.950435 0.107478 0.689495 0.945291 0.205815 
0.672112 0.974843 0.138907 0.692731 0.916993 0.150133 0.731058 1.00787 0.154916 
[...]
POINT_DATA 1274
FIELD FieldData 10
VELOCITY 3 1274 double
0.00064068113121 -0.0014528998335 7.8302789503e-06 0.00026417016631 -0.00056538482561 -0.00050755197646 0.00070955751437 -0.0017388505647 1.0593001554e-06 
0.00040215889258 -0.00015483509289 -0.0015062297527 0.00057104543432 -0.00085970583403 -4.7410433859e-05 0.00043874160234 -0.00066569237189 0.00063482789117 
0.00033552881877 -0.0010120244921 0.00020080798379 0.00013482768742 -0.00062110466072 3.0784613848e-05 0.00036829641373 -0.00088857274107 -3.8726716813e-05 
0.00018167112374 -0.00052339195999 0.00052556053224 0.00077416352682 -0.0020900723259 -0.0017400056718 0.00046612151201 -0.0012251644844 1.7615522545e-05 
0.00026970208334 -0.00072934046131 7.5528803024e-06 0.00056125969061 -0.0012496045695 0.0003742662608 0.00023367278063 -0.00064268382412 2.2385221348e-05 
0.00040396645021 -0.00095006356236 -0.00037807348056 0.00049034940479 -0.0011909014781 -0.00029799563429 0.00051367089829 -0.0013041491494 1.1234255154e-05 
0.00060409679204 -0.0010018859352 -8.2536081885e-05 0.00087355016242 -0.00069754024811 -0.00012092937371 0.00040761817029 -0.00090921654662 1.3386032513e-05 
0.00016967038507 -0.00090989376579 3.5770753462e-05 0.00026291014324 -0.0005993253107 -0.00020421745956 0.00022375448451 -0.00056675754503 -8.7088827053e-05 
0.00057014778052 -0.0013656511028 0.00053442440245 0.0003203166295 -0.00060236695882 6.8553294788e-05 0.00021728427837 -0.00058617114511 3.9400576007e-05 
0.00043980338115 -0.001076626399 1.2508720573e-05 0.00039594452491 -0.00086536388028 -0.00067389995913 0.00029163430453 -0.00062056318224 -0.00032603586197 
7.3332734336e-05 -0.0012268593289 1.5156743761e-05 0.00019919537668 -0.00064086334228 -8.071620638e-06 0.00027546922445 -0.00065461558769 -7.5259915466e-05 
0.00029859680281 -0.00086671825094 -0.00019691705872 0.00067318670992 -0.0010358598565 0.00033550871697 0.00028401766024 -0.00069431413766 3.897875922e-05 
0.00034158913613 -0.00078175764588 -0.00019079534843 0.00029066381703 -0.00064840349586 -7.916987861e-05 0.00013571877215 -0.00080007815966 -7.8730489605e-05 
0.00014406293806 -0.00036734137954 -1.0127610033e-05 0.00048787155797 -0.001172466321 -0.00025178626094 0.0003455819001 -0.00068186368738 -8.185431286e-05 
0.00026446710943 -0.00064537055572 -7.7538799689e-05 -2.5080643556e-05 -0.00058695063644 -1.91756084e-05 0.00031221248415 -0.00073240882984 -0.00027037919959 
0.00055026951099 -0.0011175530583 2.2186119046e-05 0.00016292260292 -0.0004130413646 -0.0001134199983 0.00028954390257 -0.00069674178129 -0.00029977617147 
-0.00015940223774 0.00069927891434 -1.3216670777e-05 -0.0012240953002 -0.00019966685044 -0.00078313711805 0.0001199320185 -0.00035830791609 0.00056021507047 
0.00021600027209 -0.00055147300945 0.00053002676074 -2.4131473248e-05 -0.0025022265111 -0.0015009592092 0.00066297233314 -0.0016941802306 -0.00025112403573 
0.00017906251023 -0.00049248897037 1.5847504062e-05 0.00088926119956 -0.0014099388532 -0.00078741781906 0.00014279860907 -0.00034324129521 -1.7881997657e-05 
-3.7842694089e-05 0.0004057301623 -0.00048477287091 -0.00016801479312 0.00038010061601 2.3435280177e-05 -0.0017236304113 -0.0016264487315 -0.0019833093689 
8.7868893725e-05 -0.00040019569706 -3.5752282949e-05 0.00097971757826 -0.00027795888231 0.00042399325922 4.3768266061e-05 -0.00095618689276 1.0066919259e-05 
0.00011398554051 -0.00062115402127 0.00018507752385 -0.00022672135275 -0.0010914346144 0.00030400205703 1.0351519085e-05 6.4524623282e-05 0.00040548797377 
0.0002097681499 -0.00054666923968 -0.00016717046837 0.00025667468369 -0.00066661735742 -1.7993455359e-05 3.4161607839e-05 -0.00041727507081 0.00095547992524 
-0.00043898511206 -0.0014877570933 -0.00018419581223 0.00025894941862 -0.0005548173751 -0.00040817360576 0.00030516700403 -0.0010947054195 5.4986087821e-05 
6.0647169989e-05 -0.00076314993271 -0.00021458007947 0.00019579112789 -0.00047739640722 -0.00077594544104 7.194717343e-05 -0.00059203744871 -0.00012283821039 
0.00071422027061 -0.0014865508412 0.00057990609533 0.00041241552761 -0.00075554618521 4.7333612207e-05 0.00035923785159 -0.0010389403726 -8.0974080672e-05 
0.00042109310966 -0.0010045987127 0.00032382032883 3.9213477276e-05 -0.00051164612265 -0.00011221973376 0.00046715614307 -0.0011539302087 -5.1076787514e-06 
8.333957523e-05 -0.00048789432598 -0.00026842719641 0.00043381466188 -0.0010619605323 0.00020096046356 0.0005217357412 -0.0014237097287 0.00028780710039 
0.00047797681259 -0.0011053374475 0.00035036786002 0.00029884511392 -0.00074678636062 0.00010974128009 0.00011168892103 -0.00081429688788 -0.00028536548599 
7.8001650863e-05 -0.00099692525271 0.00037924048845 0.00031422268609 -0.0008194675386 -2.625639423e-06 0.00013632783108 -0.00085519652882 -0.00016669920794 
0.00053948766961 -0.00093129284768 -0.00013507481802 -0.00056156548167 -0.00086257035171 -2.5793732954e-05 -2.3683066164e-05 -0.0010466655239 0.00010770609799 
0.0007585868752 -0.00045281899934 8.9318568022e-05 5.6165614817e-05 -0.00098687495059 -4.7955982995e-06 -4.9432500417e-05 -0.00094765413431 -1.0206703559e-05 
0.00015292584999 -0.001011898526 0.00022104673098 0.00087645486667 -0.00090434625652 5.7364843779e-05 0.00061184560991 -0.00049807424193 0.00028631785149 
-9.0568322749e-05 -0.0010201381361 0.00052973108175 0.00014143940922 -0.00075634938383 -0.00016377141761 0.0001384644269 -0.0012273690768 -3.6376555929e-07 
0.00089735013775 -0.0016582108709 -5.7554444117e-07 0.00012984956415 -0.0011077424535 1.6153739341e-05 0.00031377873016 -0.0010305046982 -3.2178712806e-05 
-0.00012706806704 -0.00066249369795 -5.8314869295e-05 0.00027885245005 -0.00080812202727 -0.00010468915316 0.00023956191894 -0.00079002419855 -7.1450366505e-06 
0.0002848958791 -0.00058536771018 -2.7867164903e-05 0.00017382431535 -0.00081682324116 0.00030677415036 -6.4126365152e-05 -0.0011506555242 0.00036593505643 
0.00058790240179 -0.0010397066063 -0.00010909854355 -4.1455938236e-05 -0.00068657834016 -0.0001765893509 0.00038144677683 -0.0009012506046 0.00043543627511 
-7.3426156408e-05 -0.00084600383836 -1.2272368368e-05 0.00057868205045 -0.00076930767092 0.00029636961008 0.00018958198991 -0.00098414506335 1.5616245271e-05 
-0.00013425215062 -0.00076274876118 0.00019048590953 0.00033930157676 -0.00072211654294 -2.804493128e-05 0.00024759009096 -0.00085152724097 0.00017498290021 
-0.00015901510767 -0.00083566154945 -3.896028262e-05 0.00020041003292 -0.00058290495418 -0.00017922303753 0.00025401993959 -0.00085695206168 0.00065438432102 
0.00054813965094 -0.0010536432424 -2.8369138386e-06 0.00031879674821 -0.00083297115131 -4.3414415929e-05 0.00020448622079 -0.00075992371323 -0.00049367994926 
8.939693346e-05 -0.00078044596028 1.3520733467e-05 7.502190062e-05 -0.00079159380881 0.00012181526687 0.00033048493512 -0.00075033840691 0.00069196415152 
0.00025457663104 -0.00068396006329 9.3295787146e-06 0.00015806644514 -0.0006220724561 -1.8194191806e-05 0.000282531324 -0.00067316694445 -1.2988664487e-05 
0.00039400249202 -0.00072208891734 -0.00018121178545 9.2426518989e-05 -0.00074279082446 -2.4005335925e-05 0.00045494294703 -0.0010392041887 4.5937578272e-05 
0.00037393664974 -0.0016299012979 0.00032195773166 -8.6842704814e-05 0.00020530845454 0.00035565302379 -7.5710609746e-05 0.00050179381311 -0.00032564594717 
0.00012583239257 -0.00018503292054 0.00062244691938 -0.00060422572616 -0.00064935729771 -0.00023683716924 -0.00011733522672 0.00057913492506 0.00069147776256 
-0.00011554132767 0.00021670070284 0.00019276029519 -0.00072644472184 0.0013617503792 0.00033104836531 -0.0017686499001 -0.0018280448368 0.000315716629 
0.00076120156599 -3.0910741339e-05 -0.00013361116074 -0.00030521067996 -0.00059205048881 1.7471080496e-05 0.0002866493077 -0.00077715002514 0.00019401917342 
8.039634566e-05 0.00090516706757 -0.00053465609938 0.00067950836052 -0.00052321848828 0.0016395422723 0.00048452278409 -0.00083603747843 0.00060551916389 
0.00070291336065 -0.00063986214999 -1.439768749e-05 0.00063095242639 -0.00055886079765 -0.00066199353854 6.2990202508e-05 -0.00057003218903 -0.00016305554794 
0.00086765953703 -0.00037012485319 -0.00053803300687 0.00035082595154 -0.00072157831369 -0.000168068539 0.00028666689327 -0.00016978209551 0.0003099837751 
-0.0003286298539 -0.0004208920229 3.964842745e-05 -0.00012396119654 -0.00098444554736 -0.00016917432672 0.00021332784234 -0.0010958262832 -0.00055671766922 
0.00092467510589 -0.00058568799628 0.00020144810016 0.00060859040395 -0.0012267654606 0.00021571393773 0.000116299633 -0.00097495720144 6.5050226792e-05 
0.00038406545873 -0.00069448081107 0.00084040904243 0.00076551247347 -0.0015441846216 0.00035298956205 -0.00023947071663 -0.00064991275134 -6.0397441541e-05 
-0.001228284073 0.00044454848249 -0.00031674194442 0.00023807784441 8.0200759293e-06 -0.00036961730086 7.1234542338e-05 -0.0008688967429 -4.957056473e-05 
0.00030488351045 -0.0016629664107 6.4717208923e-05 -0.00064739139379 -0.00064011476773 -4.2638270453e-05 0.00016281323468 -0.00067632214338 -5.1390373794e-05 
-0.00010696169095 -0.00038187622441 -1.0728182378e-05 -5.798521465e-05 -0.00084838611797 0.00043096407858 0.00018692878849 -0.00070212040032 0.00046079527717 
-4.4481017233e-05 -0.0012972238086 -0.00030603962811 0.00019709639176 -0.00072734384613 0.00016168135978 0.00023172058505 -0.0016644352713 0.00035390995891 
-0.000278164828 -0.00078423911493 -8.5275415345e-05 -6.4358609566e-05 -0.00056714821489 0.00014717719094 0.00022528265457 -0.00073511426749 -3.1757842581e-05 
0.00025444901407 -0.00075966414386 0.00012898094178 0.00010439046436 -0.00072968066822 -0.00010608738469 0.00051358667844 -0.0012915039997 -0.00080405114713 
0.00033770876197 -0.00085213429148 0.00022080060016 0.00011636084772 -0.0013112990696 -0.00097660087289 -8.1719386253e-05 -0.00077839490767 0.00065292389585 
0.00039869408198 -0.00056898061073 0.0005187099176 0.00029848705986 -0.00053647100766 -0.00019645645529 0.00019111697458 -0.00099989099979 -4.7129709347e-07 
4.359530047e-05 -0.00041167860173 6.9543623951e-05 0.00015725057082 -0.00093148431572 0.00020539734641 -0.00014777619665 -0.00073436994202 -1.2416433592e-05 
0.00030350238428 -0.00093919386415 -1.4671213389e-05 -8.1415898814e-06 -0.0011007547984 1.78597604e-06 0.00018137537404 -0.00057526187757 -0.00015595633392 
-0.00018337964297 -0.00060882293645 -0.00020074857545 -0.00030420618883 -0.00056631454515 5.7855159627e-05 4.5186094921e-05 -0.0007533625598 -8.4117331369e-06 
0.0003356345183 -0.00086078069224 -9.4583620917e-05 0.00040586599571 -0.0010528182515 2.1503237034e-05 0.00030839793624 -0.000887237029 -0.00010338356214 
5.4082891381e-06 -0.001419083161 0.00040938953662 0.00023077028142 -0.00067164852635 5.8240683081e-05 0.00030284305106 -0.00083546889695 -0.00011208891418 
0.00017828998088 -0.0003657695389 0.00012711732282 0.0004016696473 -0.00099596515751 -0.00017974524463 -2.7975270486e-05 -0.00060352976956 0.00033397576126 
9.9419926564e-05 -0.00082054732433 -3.3817579507e-05 0.0004737266205 -0.0010255337299 -0.00055067229615 0.00019891037477 -0.00090654867018 -0.00058564399384 
0.00037094283057 -0.00084335114426 4.0733012584e-05 0.00021073278687 -0.00092303858376 -5.7816779351e-05 0.0001647175728 -0.00094504052058 -3.2208287004e-05 
9.2639181066e-05 -0.0014209394909 -7.8860003268e-05 -9.5315986853e-07 -2.9584047088e-05 8.6066134307e-05 -6.3347537371e-05 8.2880325655e-05 0.0014320911058 
-3.8908708089e-05 6.278754789e-05 0.00075285824717 -0.00022585809191 0.00020784185001 -0.00016599845109 1.2240694256e-05 3.5648717894e-05 0.0010667572108 
-4.4800345638e-05 -0.00045699983169 4.6532274378e-05 4.6712558829e-05 -0.00036348612772 -0.00046211574767 -0.00036147172329 0.0002161479071 0.00059894887866 
0.00012552124239 -0.00033625476233 -0.00031009574997 -1.9637986683e-05 -0.00058889108757 -0.00021392995961 -1.3006462699e-05 1.410867649e-05 3.323002793e-05 
0.0022673185981 0.00017512768551 -6.9988685731e-05 -0.00082603020825 -0.00077023909819 0.00042892642468 -0.0020456537989 -0.00075098291041 -6.051618684e-05 
-0.0036689846335 -0.0012329096122 -0.00049207080125 0.000183605468 -0.0015947864863 -0.00019386593056 -0.00063431361231 -0.00025341318742 -0.00062306923677 
0.00057336503925 -0.001636055378 -0.00010535510058 0.0016330320132 0.00021457681934 0.00033758158804 0.00057172944401 -0.000267460455 0.00040296037906 
0.00029237395964 0.0003713516833 0.00015236686557 0.00010309479125 -0.0010633266359 8.8022270229e-05 -0.00073174268466 -0.00050192205742 -0.00039212753272 
0.00014283065373 0.0002070872614 0.00022568532354 0.00016644224259 0.00088432928309 2.7771256916e-05 0.00041355445525 -0.0013905795144 6.9234861432e-05 
0.00023711628706 -0.00069310309349 -2.6317000988e-05 0.00068928123228 -0.00085230331529 2.099036171e-06 0.00035133364044 -0.00089237371485 0.0001953941947 
0.00026045611588 -0.00048962282932 0.00047102042048 0.0010251674988 -0.00016391878079 0.00078953823706 -0.00063474352226 -0.0012967379009 -0.00015178046229 
0.00087533904903 -0.00079729916576 0.00029119526135 -0.00019113728568 -0.001417063804 0.00067495429524 8.1212823993e-05 -0.0017964551476 -0.00046941109853 
0.00030815568699 -0.0010170427487 0.00064944114316 -0.00047514971577 -0.00047060751669 -0.00012948788091 0.00056627747469 -0.0011683638805 -0.00045611756037 
0.00021787806262 -0.0012842564621 0.00049957914998 0.00049378927486 -0.001082383396 0.00048247371263 0.00014477609487 -0.00088057323871 -3.565478897e-05 
-2.4462071157e-05 -0.0017917478868 -1.9874711905e-05 -9.1867663933e-05 -0.0012948789453 0.00064302695181 0.00042897459188 2.7974616213e-05 -0.00011151370628 
0.00046140506225 -0.0017426012999 0.00040055301118 8.5749748763e-05 -0.0010120694491 -0.00026913168404 -0.00019000223611 -0.0014863630059 -2.6863163003e-06 
-0.00025721187426 -0.00087027813019 0.00086692622858 5.108847987e-05 -0.0010121692346 -1.0076117871e-05 -0.00011830269555 -0.00077330834756 3.9323559744e-05 
0.00031152527514 -0.00068784800884 1.1910447871e-05 0.00027992485294 -0.00082900174785 -5.0614777072e-05 -0.00013102311153 -0.0012948588535 -0.00024087091576 
7.0206056157e-05 -0.00093795847782 5.4974901987e-05 0.00039517546106 -0.000646100218 0.00011114579073 0.00044309859539 -0.00098958850011 -0.00012049135339 
0.00014405888974 -0.0008880296068 -0.0002520161175 -0.00014995501608 -0.0012961672672 -5.5456178787e-06 -0.00044064834741 -0.00048751334737 -0.00024797552388 
0.00062693400099 -0.00036714919264 2.5864419998e-05 0.00024484717918 -0.0010549703428 -0.00030309875031 0.00034140296603 -0.0011257176698 4.2490887361e-05 
0.00018955391646 -0.00064692464132 -0.00019008283702 0.00058989746043 -0.0008564712065 -4.5773070877e-05 0.00012753763968 -0.00068055006234 -0.00026254639449 
0.0002310087434 -0.00074816228192 -2.4024990719e-05 0.00024979225027 -0.00084692658319 -4.5749525539e-05 7.2390497504e-06 -0.00076037843158 -7.3692033145e-05 
-5.5381291488e-05 -0.00096691463033 -0.00020512994618 0.00040892512235 -0.00071793710312 -0.00015755383628 0.00039384973475 -0.001170381816 3.6285432118e-05 
6.7623759989e-05 -0.0007416664435 -0.00025012908633 -3.6950174468e-05 -0.0010949298713 -0.00026458864279 4.5881873991e-05 -0.00076075916695 1.5451567085e-05 
0.00040063171312 -0.0010134752208 0.00011785524852 0.00031366828782 -0.00078815484632 -2.2592850199e-05 0.00017293549223 -0.0007868655356 -0.000101774056 
0.00016546522407 -0.00076079534454 8.7253300749e-06 0.00064598398119 -0.0014118497827 -1.9560053233e-05 0.00092927416834 -0.0016055457581 0.00029324874147 
0.00058616612115 -0.00070550950754 -8.5420588323e-06 0.00018604251428 -0.0010791800137 4.392933879e-05 0.00012197437673 -0.0008169144146 0.00018673328056 
0.00041435976196 0.0002875045765 -3.389666133e-05 0.00026077586304 -0.00099818436461 0.00063153223602 0.00013433443795 -0.00034340699638 0.00080844123748 
-0.00051602471851 -0.0010359983962 0.0010827392895 0.00010463532855 -0.00024283940156 -0.00044186216746 0.00058335426648 0.00069319629824 0.00065999253332 
0.00025421190205 -0.0001909328614 0.0015292123735 -0.001036457048 -0.0010503937515 -0.00045461017504 0.00014829761578 0.0014898880531 -0.0010028139617 
-8.234666687e-05 -0.00012247348093 0.00010200922682 -0.00049519453764 4.4442058566e-05 -0.00060654683092 0.00012994511069 -0.00029941976885 -0.0001645245133 
-0.00025239979361 -0.0001741309846 -0.00030696598701 5.4340195141e-05 -0.00080567073033 0.00046485582915 -0.00033773563434 -0.00039730052509 -3.9098332591e-05 
0.00062184244004 -0.00015914219136 0.00017675069204 0.0011889466109 6.5865911273e-05 0.00064844413803 0.00054207214195 -5.6638516231e-07 0.00014238686587 
3.8060561569e-05 -0.00074048137374 8.5640880018e-05 0.0008418402073 -0.00070416511736 -0.00014136491677 0.00090754765464 -0.00013638822281 0.00088369486911 
0.00022733557929 8.2397942966e-05 0.00031043954935 0.00037678417905 -0.00053882990111 2.7841425356e-05 -0.00015206927471 -5.6103540071e-05 0.0010784362439 
-0.00017941247955 0.00075918046793 -0.00030730836829 -0.001390988887 -0.0013013582093 0.0011064946213 -0.0014711350485 -0.00038143941755 -4.5323578836e-05 
-0.0015768279232 -0.0001076611983 -0.00054211724364 -9.3942904389e-05 -0.00072408196815 0.0010479398204 0.0004995808209 -0.00036933419521 0.00032228203352 
0.00092806679328 7.36668784e-05 -1.5386708296e-06 3.1782917512e-05 -0.0001693873171 0.00010629151282 -0.00065786078337 -0.001453168568 0.00011483910835 
0.00043144424245 -7.3784513168e-05 -0.00062349888522 -0.00036698733844 -0.0004526847457 6.1378619386e-06 0.0010914424384 -0.00037428604533 -0.00017147883422 
-0.00067572232249 -0.00021726792658 7.4961692334e-05 0.00050315544668 -0.0010287466812 0.00057796059982 0.000255077567 -0.00035241885416 0.0007948727043 
-0.00027103858031 -0.00069288614684 -6.863644832e-05 0.00024671214726 -0.00055762621979 6.256129709e-05 -0.00028954671738 -0.00092731607226 0.00011871940686 
1.8081620689e-05 -3.5438758019e-05 -0.00076655772258 -0.00013805074984 -0.00094337720074 0.00012400494152 -0.00057117378216 -0.00079282650994 0.00022642969402 
0.00027194456194 0.00061258679854 -1.1463264097e-05 -0.00086561025527 -0.00098298350651 -0.00014162787976 0.00047948133957 -0.00064846108302 -0.00018355792335 
0.00059268004531 -0.00052044272013 4.6959399522e-06 0.00015922545213 -0.00087492873094 0.00023721165033 0.00023221507647 -0.00074147180957 0.00014485418914 
0.00019922096397 -0.000676279341 -1.5027948238e-05 2.8316630175e-05 -0.00081388065616 -0.00010013058395 -6.7330104777e-05 -0.0009839131506 -2.3010500348e-05 
0.00016424428539 -0.0010790774431 -7.3198728724e-05 -0.00025353400039 -0.00087336775307 -0.00014384488582 0.00079670123566 -0.00070866582041 -4.9257658583e-05 
0.00044733504898 -0.0014813010093 -1.7684778895e-05 -0.00089457722386 -0.0022432321737 6.4260805513e-05 -0.00019501984635 -0.00065510152676 0.00040689972921 
-0.00022023166593 -0.00067598533938 0.00094281896003 0.00014812081047 -0.00086401936187 3.619196709e-05 0.00022205997106 -0.0013300471725 -1.5554724142e-05 
0.00025437653752 -0.0010224152611 -0.00033662878829 0.0003713738514 -0.0012565656158 9.9375351695e-06 -0.00020535137442 -0.0014810993051 2.3831067256e-05 
0.00042338014362 -0.00044737070593 -6.0024505811e-05 -0.00042408411425 -0.00088466727345 -0.00036059661329 0.00038361918849 -0.0010001163505 -0.00034550620923 
0.00027514555503 -0.0007103553594 -4.0909939288e-06 0.00029898073038 -0.0014827177838 -1.5038111942e-05 4.2409974038e-05 -0.0012319879341 -0.00025375043287 
0.00035558298172 -0.00096368912622 -3.6496586984e-05 0.00073463147645 -0.0013089369509 -7.2842211352e-06 0.00026663137895 -0.0014600062878 -0.00012350933779 
0.00032845606462 -0.0016378299697 -0.00014903088872 0.00056824724379 -0.00069970397926 -7.0895554457e-05 3.5608268032e-05 -0.00098512243607 -0.00027416621103 
-0.00016987725643 -0.0013928059772 1.9240661546e-05 0.00054176889739 -0.0011181523827 -0.00020397909761 0.00043181202644 -0.0011405045332 0.00023140520765 