# vtk DataFile Version 4.1
vtk output
ASCII
DATASET UNSTRUCTURED_GRID
POINTS 1274 float
0.513606 0.552352 0.0379535 0.469876 0.650316 0.105115 0.488655 0.596109 0.268458 
0.495109 0.586707 0.098344 0.42406 0.755014 0.0323158 0.424666 0.767938 0.120018 
0.475843 0.636752 0.212903 0.459524 0.669192 0.268648 0.394473 0.843783 0.0586836 
0.398676 0.812099 0.165295 0.446506 0.697884 0.214455 0.433308 0.737599 0.265756 
0.363399 0.901427 0.0319696 0.344311 0.966852 0.0525849 0.381625 0.877684 0.146371 
0.39528 0.843245 0.231725 0.345821 0.956398 0.260007 0.314632 1.03759 0.0387204 
0.391376 0.912603 0.0864299 0.448648 0.898302 0.11008 0.332747 0.994952 0.130146 
0.409042 0.914104 0.218454 0.310615 1.03725 0.265121 0.352305 0.928771 0.18762 
0.282204 1.10041 0.0485266 0.328363 0.986873 0.2009 0.2868 1.10776 0.260298 
0.258367 1.16095 0.0336644 0.357699 1.11447 0.103059 0.302219 1.06809 0.1091 
0.289859 1.25004 0.0382188 0.303213 1.04454 0.200262 0.283939 1.09959 0.172142 
0.333666 1.2542 0.0922341 0.385952 1.15642 0.0379885 0.275945 1.14751 0.110133 
0.422065 1.14877 0.106093 0.261078 1.1496 0.208267 0.340178 1.10597 0.21117 
0.218833 1.25578 0.0332148 0.320727 1.18442 0.0539416 0.319846 1.15588 0.173606 
0.245094 1.19818 0.164341 0.287351 1.18248 0.26484 0.239466 1.22117 0.0932786 
0.372948 1.22995 0.0356631 0.236696 1.22987 0.236252 0.21609 1.25576 0.149195 
0.54049 0.470818 0.0302088 0.61152 0.295682 0.0938194 0.595679 0.358382 0.122545 
0.597142 0.347063 0.198729 0.576422 0.38808 0.2665 0.610877 0.3125 0.262255 
0.541166 0.468869 0.209678 0.509205 0.556644 0.218277 0.603562 0.328491 0.0358989 
0.566526 0.417864 0.159144 0.484085 0.623853 0.0378757 0.607867 0.473558 0.0457913 
0.546143 0.474594 0.0985155 0.549868 0.447421 0.268472 0.565249 0.570792 0.262773 
0.527701 0.511765 0.159747 0.55129 0.667906 0.0308606 0.445617 0.710919 0.0790634 
0.51767 0.697214 0.106815 0.47205 0.752477 0.178362 0.551739 0.547668 0.102271 
0.523029 0.657171 0.266704 0.446474 0.696634 0.14531 0.41539 0.776502 0.214592 
0.501023 0.67988 0.169336 0.5552 0.576629 0.168094 0.494405 0.779016 0.0922949 
0.535984 0.759578 0.14641 0.459584 0.813658 0.0363729 0.508525 0.723379 0.0397541 
0.484716 0.816924 0.150778 0.437481 0.835084 0.112838 0.365014 0.893036 0.269731 
0.499702 0.768605 0.260788 0.53889 0.616523 0.219038 0.563621 0.746823 0.22017 
0.468214 0.814729 0.213647 0.507421 0.704484 0.226021 0.460017 0.888368 0.0399313 
0.520359 0.852399 0.0356059 0.536189 0.789871 0.0326234 0.454128 0.874738 0.177584 
0.496002 0.848778 0.0949308 0.463968 0.869175 0.260663 0.438788 0.802528 0.269008 
0.417738 0.951217 0.0373629 0.373691 1.08837 0.0325887 0.466269 1.00354 0.0331274 
0.401204 0.995638 0.0953664 0.416603 0.947055 0.151213 0.469262 0.963727 0.0916445 
0.48538 0.93973 0.263347 0.419771 0.971606 0.261479 0.535378 0.981757 0.2689 
0.461339 0.949773 0.20351 0.384227 1.02279 0.0323966 0.365755 1.05312 0.0847044 
0.462983 1.0315 0.0900487 0.363009 1.06205 0.158286 0.39586 1.00379 0.19677 
0.441921 1.05025 0.264238 0.377359 1.02827 0.267487 0.483269 1.0021 0.236971 
0.458059 1.13469 0.038542 0.470555 1.08228 0.123031 0.427731 1.04101 0.139444 
0.360692 1.08937 0.269156 0.527263 1.17743 0.175893 0.490158 1.101 0.267884 
0.407684 1.08736 0.213493 0.430181 1.13262 0.264219 0.445555 1.11918 0.167074 
0.358634 1.15949 0.260112 0.511398 1.18634 0.0381489 0.498989 1.14584 0.120458 
0.437995 1.20452 0.034193 0.370075 1.20038 0.101143 0.381391 1.13243 0.16553 
0.338819 1.23589 0.260951 0.453327 1.16646 0.207941 0.403071 1.20569 0.222505 
0.469564 1.19005 0.26612 0.487799 1.25432 0.0362705 0.312955 1.21152 0.137282 
0.461011 1.24815 0.225609 0.300394 1.21196 0.203877 0.475238 1.21052 0.16999 
0.373704 1.22627 0.164141 0.63932 0.232167 0.180204 0.563773 0.413649 0.0317388 
0.66013 0.192709 0.0575892 0.660191 0.287901 0.213277 0.640285 0.240848 0.263508 
0.668796 0.174808 0.207415 0.642362 0.224324 0.115866 0.63082 0.403925 0.036349 
0.591745 0.421933 0.0892884 0.527326 0.50906 0.265843 0.606333 0.485519 0.263219 
0.617254 0.291412 0.158623 0.639916 0.376996 0.246766 0.61434 0.459315 0.135623 
0.588789 0.545693 0.0375218 0.66081 0.422019 0.100942 0.534724 0.635099 0.131177 
0.605725 0.527646 0.147099 0.576717 0.523154 0.212073 0.593102 0.432481 0.220387 
0.613262 0.622894 0.266298 0.603779 0.716427 0.039033 0.555423 0.608869 0.0643473 
0.57036 0.732276 0.0991938 0.566803 0.696409 0.158288 0.60029 0.708603 0.268226 
0.59262 0.633187 0.175491 0.645684 0.637941 0.21166 0.571681 0.671031 0.22456 
0.597742 0.756942 0.159924 0.587379 0.665846 0.0954378 0.639422 0.785886 0.0390319 
0.562213 0.794246 0.0910072 0.540756 0.812774 0.190006 0.545712 0.830817 0.261831 
0.616608 0.773038 0.265258 0.515333 0.871755 0.211631 0.625761 0.707167 0.201731 
0.600613 0.819305 0.22132 0.585342 0.835903 0.0347552 0.561192 0.857681 0.0930906 
0.565861 0.907595 0.0397017 0.504058 0.942093 0.0315438 0.552303 0.908257 0.260437 
0.598819 0.965601 0.265548 0.528687 0.861539 0.146362 0.506427 0.921129 0.170731 
0.536253 1.00108 0.0517422 0.523259 0.913992 0.104527 0.473082 1.05756 0.190895 
0.469531 0.994353 0.155441 0.538076 0.987546 0.137333 0.518582 1.04487 0.269178 
0.570536 0.943466 0.192215 0.436711 1.06466 0.0347798 0.538726 1.12285 0.0335702 
0.573419 1.06266 0.0351738 0.50429 1.0622 0.0328709 0.552294 1.10616 0.0954768 
0.522575 1.04877 0.104046 0.542393 1.00718 0.208994 0.503239 1.1239 0.20491 
0.539278 1.23243 0.0892707 0.574851 1.21007 0.032288 0.564426 1.17498 0.122875 
0.522775 1.08844 0.153314 0.605208 1.08562 0.268672 0.540737 1.23611 0.159347 
0.534213 1.21059 0.237653 0.567471 1.12776 0.179444 0.557129 1.07157 0.214933 
0.553829 1.13501 0.259468 0.640507 1.20526 0.0424117 0.62275 1.20755 0.109817 
0.465584 1.21311 0.100966 0.648066 1.23393 0.22145 0.596064 1.19663 0.186238 
0.773194 1.16516 0.205736 0.678933 0.131007 0.0398531 0.693256 0.119637 0.11489 
0.721562 0.0322022 0.193194 0.682125 0.133992 0.265509 0.697616 0.0950558 0.183819 
0.63682 0.261727 0.0387317 0.696796 0.315063 0.0396599 0.70173 0.225548 0.151065 
0.704795 0.26543 0.267352 0.640134 0.404861 0.173422 0.695554 0.199651 0.267448 
0.679269 0.326262 0.266701 0.66355 0.33621 0.138187 0.678055 0.456949 0.0405223 
0.655569 0.49315 0.09668 0.650906 0.353974 0.077493 0.685077 0.466063 0.157053 
0.650779 0.459237 0.216815 0.682365 0.27858 0.104598 0.730047 0.41173 0.198276 
0.691285 0.353696 0.201629 0.612215 0.642809 0.0351632 0.659847 0.523988 0.034932 
0.635879 0.557846 0.0895411 0.595807 0.600111 0.119724 0.648477 0.604785 0.156763 
0.664319 0.681881 0.26213 0.639817 0.544071 0.269081 0.687761 0.580545 0.207503 
0.617683 0.577117 0.209593 0.674509 0.544921 0.1503 0.678747 0.514317 0.206517 
0.630239 0.713234 0.122791 0.658382 0.651655 0.0929365 0.697957 0.571492 0.097712 
0.709391 0.625118 0.140698 0.716982 0.645886 0.206585 0.662393 0.820524 0.268702 
0.665879 0.67004 0.160581 0.624547 0.801034 0.117303 0.648334 0.874223 0.039102 
0.68977 0.759262 0.0794286 0.70765 0.699917 0.0855475 0.68119 0.761489 0.149025 
0.637968 0.773351 0.203176 0.697235 0.714554 0.2052 0.614461 0.865246 0.265677 
0.582149 0.870371 0.183457 0.615126 0.966663 0.037251 0.668547 0.982697 0.0766012 
0.631993 0.866999 0.106577 0.644646 0.925254 0.0880737 0.587398 0.905513 0.124635 
0.610139 0.965119 0.138847 0.635577 0.98238 0.209849 0.679027 0.846697 0.147878 
0.635562 0.920031 0.233735 0.643672 0.861399 0.206269 0.632239 0.914042 0.16912 
0.631355 1.10628 0.0300626 0.642334 1.03721 0.0387628 0.694886 1.08959 0.0358769 
0.575148 0.954563 0.0904678 0.595839 1.0185 0.0954701 0.667968 1.04081 0.115205 
0.578658 1.02872 0.260337 0.61424 1.02295 0.162019 0.672746 1.02879 0.183447 
0.616508 1.08766 0.0906468 0.623107 1.14112 0.138198 0.697439 1.1625 0.0370852 
0.595575 1.15189 0.0645544 0.582011 1.07474 0.145751 0.62429 1.05402 0.217064 
0.742161 1.1297 0.0836125 0.636944 1.13086 0.223705 0.661383 1.09002 0.167757 
0.603646 1.19348 0.26361 0.750092 1.20946 0.033559 0.792504 1.17876 0.102024 
0.690823 1.1678 0.106123 0.673756 1.19605 0.168657 0.677348 1.1854 0.261521 
0.721502 0.0827969 0.0341654 0.753283 0.120732 0.0773287 0.71808 0.0492861 0.120502 
0.784103 0.0577141 0.12758 0.723601 0.0411143 0.262278 0.735888 0.10512 0.244126 
0.707631 0.241261 0.0350561 0.749582 0.180143 0.0391969 0.768071 0.266083 0.0304524 
0.735697 0.178795 0.110664 0.727009 0.156062 0.172423 0.755974 0.166236 0.263424 
0.774103 0.229474 0.154596 0.77001 0.241391 0.263001 0.732085 0.208862 0.212733 
0.703792 0.390738 0.0363954 0.766218 0.327913 0.0314014 0.721639 0.333126 0.103311 
0.747422 0.250659 0.0926416 0.734359 0.417208 0.0925071 0.765284 0.372955 0.128335 
0.704606 0.387725 0.141705 0.748747 0.318672 0.262887 0.732979 0.280759 0.19731 
0.69706 0.420966 0.260497 0.72472 0.510583 0.0889968 0.750334 0.462949 0.0378083 
0.795583 0.481909 0.0867675 0.755136 0.467674 0.13712 0.791373 0.418159 0.171498 
0.676178 0.491111 0.266652 0.804736 0.511666 0.264175 0.772609 0.398114 0.26058 
0.742037 0.480523 0.245401 0.717846 0.546925 0.263652 0.670657 0.597128 0.0391153 
0.693154 0.663669 0.031532 0.738379 0.530908 0.176719 0.761953 0.579013 0.122583 
0.678662 0.612037 0.2674 0.753511 0.584437 0.216355 0.743244 0.62028 0.267491 
0.673422 0.723395 0.031371 0.747225 0.746131 0.111528 0.757614 0.690027 0.0384852 
0.728322 0.753474 0.0312097 0.747256 0.653823 0.0970124 0.740498 0.691332 0.261132 
0.689198 0.814 0.208727 0.727587 0.69004 0.147418 0.751972 0.743558 0.178916 
0.68213 0.747435 0.269539 0.702253 0.932073 0.0399807 0.718028 0.850623 0.0346077 
0.681922 0.822386 0.0843186 0.694601 0.88565 0.0949865 0.740563 0.808359 0.159107 
0.739036 0.835184 0.260086 0.72746 0.765534 0.233594 0.681305 0.883438 0.265521 
0.712352 0.875446 0.208235 0.688063 0.948571 0.268914 0.718023 1.01759 0.0398217 
0.726287 1.06649 0.089104 0.728803 0.94923 0.107485 0.689595 0.943725 0.205848 
0.672099 0.974225 0.139022 0.692325 0.916149 0.149784 0.731503 1.00658 0.15471 
[...]
POINT_DATA 1274
FIELD FieldData 10
VELOCITY 3 1274 double
0.00038150884694 -0.0010997873339 4.653150638e-05 4.7166102983e-05 -0.00073723349396 -0.0003129657669 0.00057800409591 -0.0014175842217 -6.5017703107e-06 
0.0004315623277 -0.00044047998071 -0.0012115588281 0.00059489948079 -0.00096492463222 -7.7455172385e-05 0.00039247174362 -0.00057480280645 0.00032431192244 
9.7962342231e-05 -0.00018159173419 -0.00052458478714 -0.00012383074321 -0.0011670921548 -3.5108305135e-05 0.00040013491518 -0.00081778818503 -9.8215837408e-05 
5.3124730961e-05 -0.00074736300317 0.00037943265241 0.00040439741661 -0.00053868624524 0.00065183120109 0.00043027288907 -0.0012103974976 -2.391410723e-05 
0.0002274371907 -0.000880852532 -7.2389928362e-06 0.00047238529501 -0.001010882343 0.00044946749024 0.00027783058296 -0.00067627455606 -4.9603860518e-05 
0.00038480504485 -0.00075933755655 -7.5542801345e-05 0.00030870556977 -0.00072906650386 0.00012860318039 0.00042544335168 -0.0010491348767 1.6712290833e-05 
0.00068172701347 -0.0010362162981 -0.00013557953994 0.00064942845955 -0.0006167184404 0.00021910054614 0.00038726762559 -0.00097076714799 0.00031701954778 
1.792425346e-05 -0.00077722723333 0.00016451368292 0.00023614410222 -0.00060561445471 -0.00017661660536 0.00028404782678 -0.00057305541955 -0.00020647449594 
0.00040642123222 -0.00099801090154 -0.00034551438842 0.00022521613972 -0.00068172587118 0.000154632385 0.0002376141165 -0.00059628724427 1.2838345269e-05 
0.000560538268 -0.0013398141356 2.789489725e-07 0.00038714600674 -0.0009220190371 -0.00080895758523 0.00031618985071 -0.00078593329705 0.00013908378288 
0.00012586757487 -0.0017455446861 -9.457915819e-06 0.00032415218502 -0.00062297208437 -8.3697211471e-06 0.00027984297491 -0.00072696360566 -0.00019460507001 
0.00040441092768 -0.0010685992728 -0.00025400226782 0.00098849254546 -0.0011300335629 0.00052410194539 0.00030389531551 -0.0007658273737 7.012033019e-05 
0.00035770766412 -0.00084798937754 -0.00026987034109 0.00028745555341 -0.00069554468198 -0.00014508119166 0.00015990635046 -0.00089650112068 -6.6854813334e-05 
0.00024746151124 -0.00057741890028 9.1531577525e-06 0.00067699358021 -0.0015280837954 -0.0002071544935 0.00034920668237 -0.00065510931897 7.273503311e-05 
0.00024937532245 -0.00061715750702 -0.00010796732294 -5.8658618796e-05 -0.00060930832102 -4.5754256884e-06 0.00034121856828 -0.00080895033571 -0.00018648035861 
0.00051139434876 -0.0012693874693 2.5032544343e-05 0.00017273718047 -0.00037848661955 -5.9650134723e-05 0.00026995997451 -0.00065883543717 -0.00030641499547 
-3.4760752647e-05 0.00056890054775 3.0271754997e-05 -0.0014680064475 -8.7995067491e-05 -0.00081457947049 0.00022117640238 -0.00034341845263 0.00078814092078 
0.00024379164689 -0.00074434207204 0.00073122724648 0.00041308878641 -0.0025334203826 -0.00080177826191 0.0010400797856 -0.0026009838341 -0.00070156308842 
0.00048985235017 -0.00089036390016 -0.00073990948533 0.00046419606007 -0.0011754979836 -0.00045977034194 0.00012283017383 -0.00028217870303 -1.0105233888e-05 
-0.00027089621489 0.0008427380986 -0.00059770244979 -0.00012914664318 0.00010258939319 9.4306680103e-05 -0.00073570475398 -0.0010308516917 -0.00064233772512 
0.00011097424665 -0.00035148689307 -1.258896076e-05 0.0002712733202 -0.00069262882701 6.2707035645e-06 -0.00033820824559 -0.00065635814521 -7.9808362584e-05 
4.6958392284e-05 -0.00045898531287 0.000130225721 0.0012130822886 -0.00019533602499 -0.00042073965676 4.6548030378e-05 -0.00010090948221 0.00039476683742 
0.00020603081872 -0.00063574199783 0.0008966398384 -6.9841294184e-05 -0.00075843150338 -0.00033515257037 6.8814147322e-05 -0.00029553934931 0.0011784302456 
-0.00052602487205 -0.00083982352471 0.00018547406704 8.9665969716e-05 -0.00017191855908 -0.00066338042146 0.00029029778307 -0.0006769015659 0.00031898804952 
-3.6053887661e-05 -0.00013305791576 -0.00036176796058 0.0010132805669 -0.00068922123769 0.00026142509448 0.00026260901948 -0.00055575354816 -0.00016886759942 
0.00037965766264 -0.0016523671825 0.00061199160344 0.00032179592401 -0.00083572325308 9.7482861562e-05 0.0001652842047 -0.0013262608423 0.00029552693814 
0.00048277714015 -0.0008282864542 0.00018711551203 1.3383095262e-05 -0.00050529932518 0.00022203227256 0.00028966678754 -0.00079805944927 6.0677089829e-06 
0.00015656159582 -0.00055626619988 -0.00022982273517 8.682703711e-05 -0.0011020519585 0.00048254252043 0.00034177644879 -0.0011959284905 0.00015047883236 
0.00051292956538 -0.00097050819902 0.00021959094078 0.00048731172574 -0.0015464789564 -0.0010549083231 -7.2770214889e-05 -0.00085886205098 -0.00023638854509 
-0.00019358250006 -0.001088810232 0.00020542451295 9.4561710456e-05 -0.00081960507483 -0.00047489183623 -8.2512431353e-05 -0.00093378040537 1.8323524047e-05 
0.00029962259155 -0.00091204380265 -0.00015052187313 -0.00062907345133 -0.00063192907355 -4.9724866449e-05 7.4444860419e-05 -0.0010293890589 8.9116603192e-05 
0.00041541899913 -0.00053602047185 6.1180767344e-05 0.00024523988584 -0.00087858210988 -2.1181580322e-05 0.00045807087198 -0.00086757695593 -3.0647533265e-06 
0.00060947427466 -0.00078475868499 0.00027375204299 0.00059191786941 -0.00095914152133 0.0002414844019 0.00063372800776 -0.00061380662756 5.5260933227e-05 
0.0002334986765 -0.00097942137848 0.00070001652216 0.00043584978588 -0.00066458823132 -0.00011429446389 0.00025376332091 -0.00099677521243 -1.6870179274e-05 
0.00060530831522 -0.0019854508419 0.00030136306675 0.00041352807399 -0.0011554001096 -7.2722880376e-06 0.00027057152374 -0.0010881806881 -3.9761186065e-05 
-0.00042031275751 -0.00079701688246 -1.7853847022e-05 0.00031016743678 -0.00072379006629 -0.000221657104 0.00026106149674 -0.00073053555194 2.0683192741e-05 
0.00027977479222 -0.00057492470654 -6.6290112445e-06 0.00013356731331 -0.00090795325823 0.00026370910516 -6.6646048937e-05 -0.0011264532001 0.00036499229079 
0.00091078478937 -0.001138073169 -0.00012073606678 -3.5220741278e-05 -0.00065156373806 -0.00035928563278 0.00036160188538 -0.00093825214327 0.0005671623381 
-0.00012437970999 -0.00089214627818 -1.6993769548e-05 0.00057301232126 -0.0011643606029 0.00022468367983 0.00031510519969 -0.00093420554993 2.657820948e-05 
-0.00010924025245 -0.0008791264718 0.00019297825684 0.00036191658718 -0.00078620749998 -4.614518996e-06 0.00013079308419 -0.0010230793626 0.00018021155068 
-0.00018122156186 -0.00087161725018 -2.4413071832e-05 0.00055947719359 -0.0007767824725 1.9591500935e-05 0.00032511827637 -0.00082650266037 0.00013839803128 
0.0006811127166 -0.00085346291173 -1.4977143608e-05 -7.3975249295e-05 -0.001254492239 0.00055299975242 0.00019307456762 -0.00079607417649 -0.00032700402833 
0.00016468767062 -0.00078132964394 9.0155080424e-06 0.00010388369528 -0.0010345819753 0.00016106182549 0.00058252291498 -0.00074617917941 0.0010790715407 
0.00028163507712 -0.00077809052996 3.7903015105e-05 0.00056012646114 -0.00072887647334 -2.2931320968e-05 0.00030975002569 -0.00071286021215 1.8894373559e-05 
0.00063924334989 -0.00075442773892 -0.00013951234874 0.00010457062158 -0.00069548559605 -1.4721167132e-05 0.00028121675637 -0.0012762850663 0.00012629120564 
0.00019747335022 -0.0019066590873 0.00084230172976 -3.1055942284e-05 0.00021896906132 0.00032148863569 -0.00018744711983 0.00054167768462 6.4073024249e-05 
7.6738185249e-05 -0.00023748593809 0.00050320334202 -0.00063869109057 -0.00081356909006 -0.00038628301574 -0.00012687130544 0.00035992299889 0.00050858235473 
7.6589497662e-06 5.0553875265e-05 0.00014782858491 -0.00025303192119 0.00042359279864 0.00030208485256 -0.0016889029266 -0.0014377496567 0.00021144654418 
0.00052972176503 9.1534279248e-05 -0.00021678459299 0.00038440760173 -0.00084520230047 4.7072872671e-05 0.00043295604646 -0.00086353374811 -9.4496836544e-05 
0.00013218745036 0.00089205619129 -0.0005302374887 0.0006642355073 -0.00024823357487 0.0010459547207 0.0013891933071 -0.00081522421919 0.00065050620696 
0.00050592150546 -0.00062189712395 -1.9074464849e-05 0.00074291282082 -0.0012269211146 -0.00061675252148 -0.0003116287816 -0.00067689071611 0.00036775128111 
0.00030977274931 -0.00077628272403 -0.00077044565421 0.00064540694262 -0.00053706014244 0.00040522518528 -0.00043191364219 -0.00032640223948 0.00078190205982 
-0.00023150156886 -0.00029893660895 0.00010320232492 0.00010777512269 -0.0012119133389 1.8539385627e-05 -4.4899817166e-05 -0.00093706024034 -0.00018705275505 
0.00015829415536 -0.00040172536321 -0.00011655880916 0.00076555284834 -0.0013492502051 0.00021881614723 0.00033214194494 -0.00102438641 2.6245982422e-05 
0.0005951005526 -0.00079824442042 0.00059193084287 0.00088493572288 -0.0019268795263 0.00037973046002 -0.00024930961768 -0.0010000294429 2.1565004429e-05 
-0.0011976215718 0.0010121280365 -0.00014178374137 0.0002174475295 -0.00052520587051 -0.0002773051072 0.00021490409427 -0.0011275441201 -8.3261491884e-05 
0.00016541712477 -0.0013227461082 0.00017596357954 -0.00054424526451 -0.00050622101383 -0.00011770770017 0.00048219216077 -0.00076759854331 7.096829986e-05 
-0.00038978284834 0.0001197086946 -1.9690059557e-05 -0.0001789174227 -0.00073018910328 0.00039665962485 0.00012831482378 -0.00054365487101 0.00054573548553 
0.00014995712757 -0.00094503487776 -0.00020964470706 0.00016922803352 -0.0010301921241 0.00016594313629 0.0002898503881 -0.0011409617665 1.2449699514e-05 
-8.8232870575e-05 -0.00094863412462 -0.00014320792873 1.8601821253e-05 -0.000825620599 9.1107436778e-05 0.00018158361233 -0.00080229404961 -0.00015344383547 
0.00046632884359 -0.00071065092755 0.00018410414302 -5.6702577495e-05 -0.00051574662292 1.1941388945e-05 0.0004813675826 -0.0015576159342 -0.00025268354411 
0.00043174126979 -0.0012309926249 0.00049327162848 0.00049853980083 -0.00091557248733 -0.00039491240674 0.00014748780047 -0.00089101027706 0.00056938008268 
0.00049952550437 -0.00085638739286 0.00046969138935 0.00024529086622 -0.00070561797193 -0.00028476553151 0.00022261640723 -0.0010057509557 1.0226570591e-05 
0.00015460930328 -0.00059554646841 7.1791746269e-06 0.00019511627753 -0.00096116307555 6.2166100956e-05 0.0001064576194 -0.00092634811384 2.9228159947e-06 
0.00021337299058 -0.0011858845891 -1.8829770325e-05 0.00023615917248 -0.0014637641692 -9.8774929482e-06 8.4899971887e-05 -0.00098658826982 -8.2931722801e-05 
-0.00036027146534 -0.00080064794394 -8.9820501124e-05 -0.00018878855654 -0.00078844078625 0.00012465874328 0.00010598362466 -0.00085557822567 0.00020560942746 
0.00032556019313 -0.00087058495892 -7.3918629183e-05 0.00053396067542 -0.00068631116083 -3.3786377347e-05 0.00028888659641 -0.00086055409955 3.2718131137e-06 
-9.1167483315e-05 -0.0012492674774 0.0002147638115 0.00020251854882 -0.00087477599144 2.7872482339e-05 0.00030033260111 -0.0010453111497 -6.9063971619e-05 
9.1438519489e-05 -0.00039976232738 -0.000134926479 0.00020054721458 -0.0012564054178 -0.00067013463538 -0.00027045811856 -0.00073202881575 -2.687485427e-05 
0.00038055442797 -0.00072873651921 -1.7901880301e-05 0.00056145741115 -0.00097510839633 -0.00027870637954 0.0004422775542 -0.0012239768218 -0.00026797613791 
0.00030516608395 -0.00080087047615 0.00014844566106 0.00041097493839 -0.00089035251574 -1.5964629718e-06 0.00037801988896 -0.00082153435635 -4.1465700429e-05 
8.8029387531e-05 -0.0011236848531 -4.7480956117e-05 -4.2118406712e-05 3.1638821275e-05 -0.00020837190853 -1.2189880027e-05 -0.00016067444448 0.00044007065242 
8.0220276905e-06 2.7265950789e-06 0.00026368710986 8.9474813066e-06 0.00015780384713 -6.7402911367e-05 -9.4693181121e-05 0.00018896852348 0.0010204853611 
-0.00013320370351 -0.00046090178168 0.0001252827662 -0.00081680649116 -8.2164760564e-05 -0.00043224602613 -0.0010165512189 0.00028441257642 0.0005029266291 
0.00023049996186 -0.00088690876664 -0.0002359228024 -6.6963163201e-05 -0.00081692825504 -0.00013734431649 0.00012059118208 -6.208492535e-05 6.0542102469e-05 
0.0028030722091 -0.00027961251 2.5749705193e-05 -0.00091553222747 -0.00057806887336 0.00056723405238 -0.00060118188286 -0.00070930598191 -0.00098268311562 
0.00083275093727 -0.00055899574943 1.5822883005e-05 0.00042005680039 -0.00090651299344 0.00018579146588 5.0301840509e-05 -0.00071494410694 -0.00014391897601 
0.00094592776122 -0.0027302956814 0.0004097998377 0.0016016629287 0.00013297311018 0.00037248810263 0.00095199727634 -0.00041065423676 0.00072561139666 
0.00056961034722 -0.00020596509422 9.8805365883e-05 0.00038825909241 -0.0010668643046 0.00049335101265 -0.00045291267153 -0.00057506063152 -4.4827697479e-05 
0.00012597957969 -0.00041784247473 0.00021522628386 0.00010033995241 0.00025267631985 7.237138422e-05 0.00019920832174 -0.0017829305985 -6.2481386249e-05 
0.00020224195813 -0.0011576030639 -2.4438899655e-05 0.00045065221172 -0.00075368550618 1.3183683911e-05 6.5737126851e-05 -0.00094428514417 -0.00043347665064 
8.6624957592e-06 -0.00037739490624 0.00050417671625 0.00082049659548 -0.00038785659424 0.00056219325928 -0.00070441043221 -0.0015759107278 -0.00029565364173 
0.00061294556287 -0.0013125533877 0.00045281350192 0.00020166816229 -0.0013935024045 0.00060976586176 0.00054897941296 -0.0025099210323 -0.00099117480797 
8.3916893605e-05 -0.0010839404029 6.0148643169e-05 1.8854704734e-05 -0.00094607123925 0.00025998030944 0.00080361542452 -0.0013859906259 -2.6780234175e-05 
-6.14782258e-06 -0.0015639133921 0.00043724228461 0.00046148054358 -0.00081116119081 0.0001714266157 0.00017988482746 -0.00078144858841 -1.2775581581e-05 
0.00012150118894 -0.00097784340001 0.00016627607537 -0.00064441151785 -0.00086878705217 -0.0010139504757 -4.1500635188e-05 -0.00035037051376 0.00010467257315 
0.0006449074545 -0.0024327126204 0.00038173282021 0.00046311587586 -0.0015536255061 -0.0002055001517 0.00067135934172 -0.0011912058008 -4.7068635883e-06 
-0.00012016515886 -0.00091410295271 0.00050600293559 0.0002698120027 -0.0012917937233 3.3026559388e-05 -0.00011457911659 -0.00089380088814 0.00010281077777 
0.00090325833489 -0.00061039087066 0.00018666385633 0.00043693677492 -0.00065810595786 -0.00012035542981 0.00035025147399 -0.0011615727066 -3.3749073125e-05 
0.00013040324233 -0.00094747822811 -8.5604482505e-05 0.00035795142405 -0.0012484828853 -0.00019448154705 0.00088073394407 -0.0010921187906 -6.5783602182e-05 
-5.7639175503e-05 -0.0013219596285 0.00028072612188 0.00024768895156 -0.0015025210935 -0.0012836933078 -0.00010624023504 -0.00057713398043 0.00017086409526 
0.00040715271045 -0.00066625809743 -3.5162686751e-06 0.00026057300096 -0.0012303613935 -0.00066316535756 0.00017539226336 -0.0010407861812 7.5845653444e-05 
0.0002374566278 -0.0011775219391 3.2179798095e-05 0.0008481007306 -0.0011106764831 -0.0001376690476 0.0004356047608 -0.00069085628701 6.8445597906e-05 
0.00016319810618 -0.00081850657153 -0.00036072209764 3.5569211442e-05 -0.0012087023491 -9.5078800023e-05 0.00033599683529 -0.00095533080383 -9.5050468129e-05 
-4.5677529248e-06 -0.0011162984614 -0.00025677845969 0.0001821673228 -0.0010715189893 1.5796217334e-05 0.0004868336357 -0.0010643360863 2.1796661558e-05 
0.00013473675587 -0.00090436197556 -3.5130392829e-05 -0.00023040406448 -0.0015012284927 -0.00042136801978 7.2338347422e-06 -0.00087109930873 -0.00010358663467 
0.00034619512483 -0.00098454529002 0.00017307565983 0.0004747940144 -0.00085922931373 0.00018020331932 8.6626559894e-05 -0.0010046546009 0.0001379200709 
0.00014962373456 -0.00060479881904 -1.7667222954e-05 0.0005681977041 -0.0010808264884 -1.5642947641e-05 0.00042799776861 -0.0011993125176 0.00040998323078 
0.00049546832348 -0.00067755762949 -5.2445252854e-05 0.00047332009836 -0.00095882984097 7.4992628792e-05 8.8560187977e-05 -0.00070031253718 0.0003848561972 
0.00024158493399 0.00015344559937 4.1901665668e-05 4.854062059e-05 -0.00079714068659 0.00053519174533 6.3471962631e-05 -6.9133559711e-05 0.0013949677857 
-0.00050523115629 -0.00079530710185 0.0014973107366 0.00010787467276 -0.00018349769831 -4.6686702359e-05 0.00046036148525 0.00044195751934 0.00047662995414 
0.00040212331599 -0.00014689851662 0.0011506801642 -0.0010597344264 -0.0010657292261 -0.00036506001193 8.4867434229e-05 0.0016808332935 -0.001020958191 
0.00045206254192 -0.00029139184996 0.001270705394 -0.00052618610937 9.7945114031e-05 -0.00070726066025 -0.00034508725828 -0.00064730814672 3.1729123183e-05 
0.0010006463871 0.00021495399544 -0.00019538311406 0.00044003694495 -0.00055369503923 3.6018910254e-05 0.00035069469189 -0.00021301977039 -1.4915859706e-05 
0.00071282286169 -0.00021998879426 0.00028542193051 0.00027982802311 -0.0008065413111 0.00087825453901 0.00071347767164 -0.00030645182924 -5.7527553504e-05 
-0.00011807545124 -0.00036895982613 -1.5293026361e-05 0.0011467414146 -0.0010206326986 7.7736657493e-05 0.00076326783331 -0.00062728022672 0.00061416612856 
0.00040116104626 -0.00015317777896 0.00049862470254 0.00050834293437 -0.001058103559 4.8124413348e-05 -0.00029871233333 -5.5614482515e-05 0.00075364336017 
-0.00037938085614 0.00051169260286 -5.2090551774e-05 -0.00075047966218 -0.0016554843493 0.0012749893193 -0.0007024673863 -0.00020675576766 0.00010539230028 
-0.00052925623848 -0.0029754757031 0.0011665116893 0.00050702217511 -0.00032319223087 0.0016094904202 0.00076904031137 -0.00073595070096 0.0014373773298 
0.0011149976572 0.00013154654213 -8.5255457681e-05 -0.00081388184455 -0.00026014104415 0.00038867997037 -0.00050143154163 -0.00066302757848 -9.296211754e-05 
0.00055068946119 -0.00033574456544 -0.00030204357983 -0.00020265331097 -0.00036911023915 2.2690356949e-05 0.00010062257645 -0.00084997465231 -1.1948066678e-05 
0.00040356467215 -0.00075710918074 0.00047636444415 0.0002522442433 -0.0014068040874 0.00038297027283 2.1120529836e-05 -0.00037952429989 0.00048050756307 
-0.00050491635046 -0.0018661558781 6.0359941279e-05 -0.00011887176174 -0.00047801311851 -0.00024430668832 -0.00069464547583 -0.00099876187658 -0.0002860076008 
-0.00018045555766 -0.00079612975903 0.00010544550947 -0.00069813996257 -0.0010487488647 -0.00050002786296 4.0224704378e-05 -0.00082509159816 -0.00049086593285 
-4.9622670407e-06 -0.00085956753588 -5.5116760966e-06 -0.00047020136899 -0.00082640142077 -0.00020707938574 0.00029088505183 -0.0008510650085 8.4395109323e-05 
0.00034749130884 -0.0011098610823 -5.6798705816e-05 -0.00011736364819 -0.00087963586635 -4.8580120411e-05 0.00027108290446 -0.00081679438083 0.00043914391214 
-0.0005832336984 -0.001039223734 7.6730642004e-06 0.00025862211268 -0.00060207153196 0.0001038470583 0.00054970231151 -0.0010315521259 7.4206972308e-05 
-0.00032704195482 -0.00067606799892 -0.00074875887335 0.0004544010924 -0.00097976503391 -0.00012758999076 0.00046464111578 -0.00077926123998 -1.6709894018e-06 
0.0002692785194 -0.0010659957184 -4.9717795241e-05 -0.00056885356454 -0.00057636003928 0.0002507475174 0.00027483089084 -0.0012297249384 -4.2082874539e-05 
-0.00018045019422 -0.0010253576062 0.00025657417272 -0.00050408094147 -0.0010528063615 -8.5578818481e-06 0.00023356305538 -0.0011793789628 1.8548816313e-05 
0.00044908798164 -0.0012451993675 -0.00023014772052 0.00017736341377 -0.00082007186096 3.49579617e-05 0.0005517818038 -0.0011716814424 -1.4958611526e-05 
0.00022478806102 -0.00058946617851 -1.1852532869e-05 -0.00081954684116 -0.0018394355099 0.00023122149677 0.00045181012304 -0.00092651076856 -0.00017109428093 
0.00016325594767 -0.00057826507955 -2.4808942449e-05 0.00014832701938 -0.00091007495254 -3.5189066552e-06 5.5828450543e-05 -0.0011163256814 -6.7033657677e-05 
0.00020257806388 -0.00086190352315 -5.0154207006e-06 0.00073726171405 -0.00080143260241 -4.8677639341e-06 0.00031039180001 -0.00094578855027 -9.805474114e-06 
0.00021417222819 -0.0012477763168 1.78810211e-05 0.00019237417601 -0.00065455087936 -3.4278205076e-05 -7.6434470034e-05 -0.0013047327144 -0.00018650136067 
-0.00011532810066 -0.0010460335959 -7.8912967489e-06 0.00013809709524 -0.001103092828 -9.9712389326e-05 0.00041458305254 -0.00083918139412 0.00021831571143 
5.9312262883e-05 -0.0011836774137 6.3918877466e-05 9.9883225599e-05 -0.00061981197999 -0.00040613235479 4.4242372015e-05 -0.00084626215611 4.0326119199e-05 