# vtk DataFile Version 4.1
vtk output
ASCII
DATASET UNSTRUCTURED_GRID
POINTS 1274 float
0.513512 0.552582 0.0379538 0.469825 0.65044 0.105124 0.488545 0.596377 0.268458 
0.49506 0.586823 0.0984225 0.423999 0.755161 0.0323156 0.424625 0.768036 0.119968 
0.475816 0.636818 0.212934 0.459531 0.669326 0.268648 0.394406 0.843945 0.0586955 
0.398629 0.812209 0.165231 0.446411 0.698117 0.214532 0.433231 0.737784 0.265757 
0.363334 0.901585 0.0319694 0.344236 0.967034 0.052496 0.381571 0.877814 0.146385 
0.395222 0.843387 0.231722 0.345765 0.956535 0.259982 0.314551 1.03778 0.0387204 
0.391236 0.912788 0.0864623 0.448514 0.898422 0.110058 0.332671 0.995138 0.130122 
0.409009 0.914242 0.218457 0.31057 1.03736 0.265122 0.352256 0.928892 0.187646 
0.282126 1.1006 0.0485976 0.328308 0.987005 0.200871 0.286756 1.10787 0.260298 
0.258273 1.16118 0.0336643 0.357624 1.11464 0.103181 0.302163 1.06822 0.109135 
0.28984 1.25032 0.0382188 0.303159 1.04467 0.200266 0.28388 1.09973 0.172171 
0.333596 1.25439 0.0922817 0.385806 1.15663 0.0379213 0.27589 1.14764 0.11013 
0.421993 1.14893 0.106141 0.26102 1.14974 0.2083 0.340151 1.10612 0.211187 
0.218798 1.25587 0.0332147 0.32062 1.18467 0.0539675 0.319796 1.15601 0.1736 
0.245043 1.1983 0.164352 0.287368 1.18259 0.26484 0.239407 1.22131 0.0933207 
0.372747 1.23028 0.0356631 0.236667 1.22994 0.236268 0.216036 1.2559 0.149246 
0.540548 0.470764 0.030209 0.611537 0.295642 0.0938946 0.595657 0.358431 0.122407 
0.597097 0.347172 0.198599 0.576361 0.388229 0.266499 0.610715 0.312894 0.262304 
0.541108 0.46901 0.209689 0.509123 0.55684 0.218345 0.603541 0.328542 0.0358989 
0.566539 0.417838 0.159156 0.484085 0.623853 0.0378755 0.608001 0.473751 0.0459073 
0.546116 0.474657 0.0985165 0.549808 0.447565 0.268476 0.565278 0.570933 0.262773 
0.52766 0.511864 0.159721 0.551229 0.66803 0.0308604 0.445576 0.71102 0.0790109 
0.517648 0.697315 0.106717 0.471995 0.752624 0.178338 0.55167 0.547738 0.102174 
0.523047 0.657368 0.266703 0.446456 0.696676 0.145435 0.415329 0.77665 0.21456 
0.501034 0.680012 0.169455 0.555096 0.576748 0.168115 0.494368 0.779181 0.0922808 
0.535935 0.759722 0.146398 0.45951 0.813812 0.0363735 0.508505 0.723534 0.0397542 
0.484674 0.817077 0.150771 0.437413 0.835193 0.112843 0.364957 0.893176 0.269731 
0.49965 0.768734 0.260788 0.538892 0.616678 0.219067 0.563589 0.746967 0.220194 
0.468159 0.81487 0.213636 0.507325 0.704719 0.226107 0.46003 0.888523 0.0399271 
0.520395 0.852588 0.0356259 0.536138 0.79004 0.0326234 0.454106 0.874905 0.17757 
0.495931 0.848942 0.0949743 0.46405 0.869317 0.260663 0.438764 0.802708 0.269008 
0.417663 0.951314 0.0373631 0.373654 1.08855 0.0325887 0.466233 1.00372 0.0331275 
0.401113 0.995802 0.095311 0.416493 0.947217 0.15116 0.469146 0.963834 0.0916016 
0.485356 0.93991 0.263226 0.419727 0.971748 0.261479 0.535327 0.981961 0.2689 
0.461222 0.950112 0.203454 0.384156 1.02301 0.0323965 0.365706 1.05333 0.0847176 
0.463058 1.03163 0.0900799 0.362971 1.06221 0.158299 0.395806 1.00393 0.196773 
0.441887 1.05038 0.264238 0.37732 1.02841 0.267487 0.483264 1.0023 0.236892 
0.457913 1.1349 0.038542 0.470549 1.08243 0.123054 0.427671 1.04117 0.139373 
0.360723 1.08953 0.269156 0.527182 1.1776 0.175855 0.490101 1.10117 0.267884 
0.407702 1.0875 0.213467 0.430116 1.13277 0.264219 0.445534 1.11937 0.167049 
0.358669 1.15965 0.260112 0.511322 1.18648 0.0381731 0.498934 1.14601 0.120413 
0.437775 1.2048 0.0341931 0.370056 1.20058 0.101088 0.381358 1.13257 0.165603 
0.338805 1.23604 0.260951 0.453335 1.16665 0.207904 0.403 1.20583 0.222348 
0.469529 1.19018 0.26612 0.48773 1.25446 0.0362705 0.312901 1.21165 0.137282 
0.460934 1.24828 0.225616 0.30038 1.21209 0.203884 0.475186 1.21074 0.169945 
0.373647 1.22659 0.164042 0.639342 0.232112 0.180123 0.563798 0.413582 0.0317394 
0.660116 0.192742 0.0575009 0.660278 0.287903 0.213298 0.640276 0.240869 0.263508 
0.668806 0.174784 0.207412 0.64238 0.224277 0.115831 0.63088 0.40411 0.0363451 
0.591789 0.42206 0.089292 0.527267 0.509203 0.265844 0.606268 0.48567 0.263219 
0.617264 0.29139 0.158702 0.639821 0.377098 0.246687 0.614237 0.459456 0.135687 
0.588685 0.54581 0.0375218 0.660735 0.422218 0.100989 0.534665 0.635244 0.131217 
0.605634 0.527803 0.147067 0.576664 0.523292 0.212057 0.593056 0.43263 0.220382 
0.613312 0.623016 0.266298 0.603803 0.716599 0.0390331 0.555405 0.609024 0.0643942 
0.570279 0.732474 0.0991288 0.566768 0.696587 0.158215 0.600206 0.708783 0.268226 
0.592502 0.633327 0.175399 0.645524 0.638293 0.2116 0.57168 0.671195 0.224521 
0.597692 0.757118 0.159942 0.587356 0.665925 0.095479 0.639393 0.786086 0.0390315 
0.562165 0.794458 0.0910027 0.540836 0.8129 0.189999 0.54566 0.830946 0.261831 
0.616587 0.773201 0.265257 0.515344 0.871878 0.211556 0.625728 0.707356 0.201654 
0.600586 0.819486 0.221341 0.585288 0.836075 0.0347556 0.561151 0.857895 0.0930808 
0.565892 0.90779 0.0397015 0.504068 0.942251 0.0315439 0.55226 0.908384 0.260437 
0.598753 0.965746 0.265548 0.528676 0.861662 0.146377 0.506343 0.921377 0.170801 
0.536174 1.00132 0.0516469 0.523168 0.914156 0.104604 0.473078 1.05773 0.190775 
0.469446 0.994486 0.155386 0.538016 0.987675 0.137377 0.518535 1.04504 0.269178 
0.570524 0.943576 0.192216 0.436671 1.06483 0.0347799 0.53871 1.12301 0.0335699 
0.573387 1.06289 0.0351738 0.504254 1.06249 0.0328709 0.552283 1.10635 0.0954818 
0.522639 1.04893 0.104083 0.542427 1.00731 0.208984 0.503213 1.12405 0.204881 
0.539214 1.2326 0.0892761 0.574767 1.21022 0.0322879 0.564369 1.17514 0.122872 
0.522788 1.08869 0.153281 0.605176 1.08577 0.268672 0.540667 1.23629 0.159351 
0.534197 1.21067 0.237659 0.567443 1.12799 0.17957 0.557155 1.0717 0.214924 
0.553777 1.13515 0.259467 0.640422 1.20549 0.0424574 0.622659 1.20779 0.109861 
0.465515 1.21327 0.100921 0.647983 1.23409 0.221457 0.595978 1.1968 0.186248 
0.7732 1.1654 0.205741 0.678935 0.131004 0.0398977 0.693236 0.119682 0.114725 
0.721562 0.0322018 0.193229 0.682126 0.13399 0.265509 0.697628 0.0950256 0.183625 
0.636836 0.261797 0.0387336 0.696729 0.3151 0.0396591 0.701764 0.225523 0.151003 
0.704738 0.265578 0.267352 0.640122 0.405014 0.173448 0.695532 0.199654 0.267448 
0.679163 0.326388 0.266702 0.663475 0.336181 0.138166 0.678171 0.457079 0.0405855 
0.655441 0.493246 0.096665 0.651019 0.354199 0.0775082 0.685058 0.466292 0.157048 
0.65063 0.459605 0.216755 0.682339 0.278567 0.104576 0.729857 0.411825 0.198125 
0.691194 0.353731 0.201595 0.612169 0.642973 0.0351628 0.659933 0.524109 0.0349339 
0.635855 0.557933 0.0895118 0.595776 0.600142 0.119763 0.648449 0.605041 0.156768 
0.66426 0.682121 0.26213 0.639696 0.544253 0.269081 0.687735 0.580755 0.207501 
0.61766 0.57723 0.209526 0.674401 0.545141 0.15031 0.678695 0.514531 0.206519 
0.630145 0.713422 0.122752 0.65839 0.651914 0.0928416 0.6979 0.571699 0.0977391 
0.709371 0.62531 0.140654 0.716995 0.646078 0.206537 0.66231 0.820747 0.268702 
0.665869 0.67026 0.160499 0.624522 0.801144 0.117271 0.648281 0.874393 0.0391015 
0.689747 0.75944 0.0794043 0.707767 0.700105 0.0857186 0.68112 0.761646 0.148996 
0.637937 0.773538 0.203172 0.697202 0.714733 0.20518 0.614375 0.865466 0.265677 
0.582207 0.870503 0.18337 0.615074 0.966926 0.037251 0.668536 0.982875 0.0765813 
0.631824 0.867124 0.106542 0.644553 0.925386 0.0881107 0.587325 0.905714 0.124675 
0.610093 0.965327 0.138863 0.635502 0.982608 0.209867 0.678857 0.846895 0.147878 
0.635552 0.920251 0.23369 0.64363 0.861674 0.206508 0.632252 0.914239 0.169075 
0.631294 1.10644 0.0300627 0.6423 1.03746 0.0388973 0.694853 1.08983 0.0358781 
0.575108 0.954754 0.0904831 0.595677 1.01873 0.0954916 0.667905 1.04095 0.115243 
0.578612 1.02887 0.260381 0.614218 1.02316 0.162003 0.672699 1.02901 0.183498 
0.616497 1.08784 0.0906688 0.623084 1.14134 0.138183 0.697359 1.16274 0.0370852 
0.595554 1.15207 0.0645653 0.582047 1.07502 0.145824 0.624296 1.05419 0.217072 
0.742076 1.12988 0.0835717 0.636846 1.13103 0.223677 0.661353 1.09023 0.167733 
0.603637 1.19358 0.26361 0.749995 1.20973 0.033559 0.792397 1.17898 0.10191 
0.690725 1.16794 0.106129 0.673666 1.19624 0.168645 0.677341 1.18554 0.261441 
0.721551 0.0828391 0.0341656 0.753328 0.120841 0.0772708 0.718063 0.0493275 0.120281 
0.78408 0.0577729 0.127395 0.72359 0.0411397 0.262309 0.735836 0.10511 0.244005 
0.707641 0.24131 0.0350558 0.749741 0.180294 0.0391973 0.768099 0.266086 0.0304526 
0.735786 0.178772 0.110649 0.72705 0.156114 0.17243 0.756013 0.16635 0.263424 
0.773879 0.229388 0.154629 0.769937 0.241496 0.263 0.732046 0.20893 0.212732 
0.703673 0.390781 0.0363948 0.766157 0.327911 0.0313991 0.721509 0.333189 0.103328 
0.747439 0.250746 0.09263 0.734131 0.417396 0.0924974 0.765158 0.373111 0.128197 
0.704481 0.387773 0.141673 0.748609 0.318885 0.262878 0.733065 0.280824 0.197301 
0.697103 0.420864 0.260497 0.724861 0.510911 0.0887889 0.75045 0.463042 0.037808 
0.79568 0.482195 0.0867085 0.755052 0.467797 0.136871 0.791196 0.41831 0.17139 
0.676107 0.491327 0.266652 0.804653 0.511699 0.264177 0.772716 0.398225 0.260579 
0.74195 0.480532 0.245454 0.717942 0.547016 0.263651 0.670601 0.597276 0.0391161 
0.69319 0.663786 0.0315325 0.738297 0.531113 0.176656 0.761928 0.579204 0.122531 
0.67873 0.612265 0.267401 0.753488 0.584571 0.216367 0.743318 0.620461 0.267491 
0.673454 0.723511 0.0313716 0.747314 0.746361 0.111666 0.757623 0.690194 0.0385463 
0.728327 0.753638 0.0312096 0.747375 0.653985 0.0970695 0.74044 0.691507 0.26113 
0.689128 0.814237 0.208732 0.727614 0.690213 0.147433 0.751941 0.74369 0.178845 
0.682238 0.747629 0.269539 0.702221 0.932224 0.039981 0.718 0.850782 0.0346093 
0.681898 0.822562 0.0843336 0.69455 0.885831 0.0950097 0.740514 0.808474 0.159149 
0.738978 0.835401 0.260086 0.727563 0.765647 0.233546 0.681258 0.883651 0.265521 
0.712379 0.875645 0.208178 0.688096 0.948775 0.268913 0.717985 1.01781 0.0398212 
0.726207 1.06668 0.0891479 0.728772 0.949406 0.107479 0.689536 0.943979 0.20584 
0.672066 0.974343 0.138995 0.692367 0.916307 0.149827 0.731426 1.00676 0.154732 
[...]
POINT_DATA 1274
FIELD FieldData 10
VELOCITY 3 1274 double
0.00055733657835 -0.0014112924637 1.5327546789e-05 0.00021488857043 -0.0006837821583 -0.00029498487253 0.00061627635234 -0.0013917008231 2.4322208038e-05 
0.00096410101594 -0.00060951861753 -0.001804093728 0.00061701741945 -0.0010420658068 -2.9777664739e-05 0.0003605343635 -0.00059136518286 0.00034652473979 
0.00013268799118 -0.00042281771668 -0.00050818204322 0.0002124891502 -0.00083532319926 -1.1168301761e-05 0.00042517683403 -0.00098841688412 -0.00018122342359 
0.00016583286657 -0.00067782884261 0.00034717004964 0.00043965548945 -0.00066907371486 0.00057737246894 0.00046084795229 -0.001172169834 -1.5752846573e-05 
0.00036250425669 -0.00088283164608 -1.2409348996e-05 0.00046470690636 -0.0010653366893 0.00050718031327 0.00024725566791 -0.00074301106921 -5.7270070001e-05 
0.0003951412853 -0.00087545869847 -3.5173914904e-05 0.00036877298552 -0.0008319232845 0.00012028185757 0.00045904480052 -0.0011174022976 1.6417751482e-05 
0.00084331020072 -0.0010401019103 -0.00020808478133 0.00080970538682 -0.00070802070125 9.65923748e-05 0.00041226400711 -0.0011021745155 0.00025767005513 
-4.257711568e-05 -0.00084241244638 0.0001218582064 0.00022309468369 -0.00056820184804 -0.00018634639747 0.00035730171523 -0.00067159984232 -0.00024686116482 
0.00042996957953 -0.0010571756044 -0.00045552682679 0.00026538317348 -0.00080258663501 0.00012918456378 0.0002248816072 -0.00057806578021 3.2544747312e-05 
0.00049687503297 -0.0012231192329 3.9340626241e-05 0.00050466147714 -0.0010549075735 -0.00086550987037 0.00031401285729 -0.00078145877933 9.1884469429e-05 
6.8658702035e-05 -0.0014478224469 2.4928223855e-05 0.00036294958686 -0.000750599543 -1.4571296063e-05 0.00034234406753 -0.00086275952892 -0.00022036842638 
0.00037732380205 -0.0010490120989 -0.00028800997187 0.0006957353848 -0.0012293003377 0.00039627254026 0.00031239015613 -0.00076300884871 -0.000139631148 
0.00036774072173 -0.00086784742534 -0.0001181705694 0.00035859256206 -0.00082545446917 -0.00025328961934 0.00015825734764 -0.00096860382583 -4.8918036729e-05 
0.00017372690764 -0.00038550688996 -2.3200997664e-05 0.00056644562727 -0.0012599049916 -0.00029722909958 0.00029542126492 -0.00078653108212 -9.2241310222e-05 
0.0003062842098 -0.00073875786221 -0.00012112120744 -4.2862414983e-05 -0.00057946519177 -1.4330766997e-05 0.0003207360547 -0.00079761494688 -0.00027271359599 
0.0011538724085 -0.0018182303728 9.0534871088e-06 0.0001671593968 -0.00039902762745 -0.00013434361865 0.00031632132137 -0.00077473197756 -0.00029035111696 
3.2183955443e-05 0.0005853129979 2.2659175986e-05 -0.0011892714062 -0.00012851212963 -0.00084538115413 7.9117484285e-05 -0.00046568671211 0.00073257963824 
0.00017736872767 -0.00065005565138 0.00066080749577 0.00034197188234 -0.0022641551441 -0.0011196320463 0.00085999969193 -0.0021816938014 -0.00033480224574 
0.00044401927491 -0.0008348767469 -0.00019764260802 0.00044951255942 -0.0013913044498 -0.00071710176853 0.0001136971454 -0.00023551935167 -2.4333797646e-05 
7.4675593565e-05 0.00045123491911 -0.00072730128799 -0.00010186954714 -0.00022213533286 -0.00010419456426 -0.00089449799758 -0.0011067657521 -0.00063019385125 
2.92149687e-05 -0.00035166088303 -0.00017818342801 -1.6560973105e-05 -0.00069511766375 0.00020224329492 -0.00034616905678 -0.00075294897306 -7.0269223325e-05 
0.00022396023407 -0.00059334767668 0.00018860778411 -4.3787790723e-05 -0.0010550542665 0.00065020415629 8.3427333578e-05 -0.00016934605463 0.00039754893065 
0.00011411265154 -0.00054529693849 0.00069410634148 8.6132346512e-05 -0.00088750133875 -0.00050053338646 0.00025939239887 -0.00035497833257 0.0011516349133 
-0.0004529389852 -0.00084715444767 0.00010467411745 0.00012905374773 -0.00025018194981 -0.00085033456684 0.00054902928881 -0.00097517270403 0.00012064943009 
-0.00015515014119 -0.0003854816664 -0.00043994431034 0.0010267946906 -0.00061278772743 0.00029710687533 0.00024142333786 -0.00069142514354 -8.5489525525e-05 
0.00044913200178 -0.0015823869314 0.00062746710949 0.000463068389 -0.00094627150041 3.9657222491e-05 0.0004539136675 -0.0010996154958 0.00024515288283 
0.00041765371365 -0.00080786084427 -7.5446993719e-05 2.0934214945e-05 -0.00056091412484 0.00013650035159 0.00031200739184 -0.00085174790363 -3.6272170372e-05 
0.00012782010255 -0.00058150140383 -0.00030165925872 0.00017626103231 -0.0010931749447 0.00036003975493 0.00035355579458 -0.001172653315 9.5513034798e-05 
0.0002411831257 -0.00078277433932 2.7794635882e-05 0.00051625401707 -0.0015702745709 -0.0012693864629 -0.00022211546956 -0.0009706942168 -0.00023237964227 
-0.00025275895299 -0.0011298479944 0.00026828249923 0.00011393026107 -0.00089081883756 -0.00043915922285 0.00014681515593 -0.00095606777225 0.00014823112147 
0.00042553989088 -0.00098225024727 -0.00029621527342 -0.0004218450415 -0.0009113865761 7.5913976489e-05 0.00017861681399 -0.0010324244544 2.5264353155e-05 
0.00045971306887 -0.00059548490014 9.0089070666e-05 0.00010005824829 -0.0011573271732 9.8544314227e-06 0.00035798128687 -0.00092181407651 2.724192535e-06 
0.00064561052238 -0.00081292659532 0.00032462589642 0.00081316028811 -0.0010855803922 9.9757968829e-05 0.00072510445772 -0.00062875253124 0.0001475421184 
-7.0298872518e-05 -0.00094311781696 0.00067338798486 0.00022864544192 -0.00076984865118 -0.00014156760426 0.0002439280285 -0.0011984460294 -1.1135018182e-05 
0.00091220438829 -0.001970787326 0.00016201088134 0.00033802150703 -0.0011831929421 -1.5034331038e-05 0.00032338165425 -0.0011505539995 -1.0600312657e-05 
-0.00045263422432 -0.00081988321842 1.8038658454e-05 0.00019099826537 -0.00079769071936 -0.00024723645609 0.00026095560959 -0.00086586695803 -5.0764956714e-05 
0.00027083920204 -0.00062454810359 -1.2283710629e-05 0.00013540121517 -0.00089124721269 0.00030616484103 -1.5427138576e-05 -0.0011079177786 0.00043390071371 
0.00073312745237 -0.0011109236209 -6.8876182029e-05 -0.00011976789931 -0.0006995744832 -0.00036586600175 0.00030636394856 -0.0010799265179 0.00066032973645 
-0.00023989321387 -0.00089960951237 -1.4201108885e-05 0.00059170658663 -0.0010558568522 0.00015663957699 0.00025993924745 -0.00094821612377 -1.62686534e-05 
-0.00010515619457 -0.00092680658681 0.00016458556317 0.00028232256232 -0.00084351407218 -2.3831079502e-05 0.00014444099556 -0.001181527037 0.00022078973299 
-0.00019107766941 -0.00089013926259 -2.880509166e-05 0.00043796168707 -0.00078651290043 -0.00020032557844 0.00033049156836 -0.00096419276799 0.00024315375998 
0.001196966554 -0.0017639631135 -1.7903605737e-05 0.00020136809286 -0.0010945893829 0.0001325941896 0.00020006117295 -0.00088730029076 -0.0004252149915 
-5.7683695526e-05 -0.00085909996315 -4.6549573404e-06 2.3316782601e-05 -0.0011712899063 0.0002267775566 0.00040360187262 -0.00084332217385 0.00072100290284 
0.00011856076275 -0.00075380439552 1.6031075776e-07 0.00025417602967 -0.00085723372766 -5.7203178014e-06 0.00030901910628 -0.00076468853823 -5.4092252516e-05 
0.00045443078881 -0.00083105676376 -0.0001054937105 4.3198785202e-05 -0.00087305502342 -9.943241333e-05 0.00020446987195 -0.0013478331159 0.00018919354539 
0.00037437764711 -0.0018118454169 0.00041304439135 -0.00011417137986 0.00049847334532 0.00049452321964 -4.1125228212e-05 0.00032449185927 -0.00038337682622 
-2.3392217479e-05 -0.00021082615593 0.00048379634616 -0.00081973422198 -0.00073725609889 -0.00036935638836 -7.1788531429e-05 0.00035744054016 0.0004964702282 
-8.0637585762e-05 0.00020990891633 7.9283014034e-05 0.00014987226184 0.00020591499534 2.2991998817e-05 -0.0020218856247 -0.0016795331328 0.00029390577828 
0.00074819087235 -4.6254413735e-05 0.00011278361953 0.00034772692961 -0.00079151473747 0.00017311500836 0.00041174207643 -0.0010334750945 -6.4846590915e-05 
0.00016449216524 0.00099647987376 -0.00041187679826 0.00065841267854 -0.00021859576657 0.0012014916357 0.00072882215715 -0.0012149126371 0.00052801950708 
0.00067159834953 -0.00062440955889 -2.2186256866e-05 0.0010269910064 -0.00058178070139 -0.00063573702514 -0.00053327578868 -0.00070570114386 0.00049466713453 
0.00025754922955 -0.00085565811433 -0.00079267653992 0.00079510120218 -0.00091590288446 0.0004370940541 -0.00017830624674 -0.00069522265419 0.00058221330476 
-0.00027386870205 -0.0005391197123 6.3264298217e-05 -7.8940425716e-05 -0.0010606138648 2.4194763396e-05 0.00047848855445 -0.0013055283469 -0.0007852980818 
0.00028341650866 -0.00057790225186 3.0029295169e-05 0.00071311486134 -0.0014032031241 0.00010953286662 0.00041803620241 -0.0010832071817 2.4394495234e-05 
0.00048531444004 -0.00076700865654 0.00075682205501 0.00083339452858 -0.0019131586851 0.00032358759882 -6.575908517e-05 -0.00095276409705 0.00023977422606 
-0.0013262403587 0.00081316932245 2.5273542432e-05 9.7998928794e-05 -0.00057338679919 -0.0003253798232 0.00014606952538 -0.0012083208166 -6.7135983066e-05 
0.00019007435564 -0.0012712276785 0.00038292178883 -0.00078929324917 -0.00043898401777 -0.00010208438602 0.00063803791116 -0.00089522072115 6.1736944694e-05 
-0.00047066133822 0.00014271572969 -2.1340651918e-05 -2.1471720562e-05 -0.000538186309 0.00046521292319 0.00011165017002 -0.00055405955173 0.00036615495854 
0.00011470512354 -0.00082534506762 -0.00015540236734 0.0003252655681 -0.00099794964971 0.00019887517959 0.00042288762657 -0.0012226986822 0.00013323480061 
-0.00033320153258 -0.0011003336653 -0.0001151511242 -0.00010044992376 -0.00094603728575 -4.5222300197e-05 -1.6935618222e-05 -0.0007433891998 -7.0846920106e-05 
0.00031805157982 -0.00078534575164 9.0564294853e-05 -0.00014140865125 -0.00048754171221 1.1361228091e-05 0.00063537262492 -0.0015065627594 -0.00061886529404 
0.00041812798086 -0.0014048868479 0.00055504959601 0.00056659206933 -0.0010527214892 -0.00073556028796 0.00013563943905 -0.0008541173463 0.00059619336979 
0.00059926453687 -0.00087825811945 0.00056145056854 0.00040575802624 -0.00059213011337 -0.00017336538449 0.00028124368884 -0.0010142444743 6.5863140555e-06 
0.00028427956886 -0.0004803800829 0.00011164990373 0.00014542951244 -0.0010212605597 4.9949755336e-05 -8.6572736986e-06 -0.00098509354824 -6.3824152234e-06 
0.00017772082713 -0.0013817357605 -1.8064038463e-05 0.00020043677673 -0.0017052004998 -3.7175026885e-05 0.00019457955718 -0.0010027926633 -8.7731246938e-05 
-0.00047992723664 -0.0007834866201 -0.00017381239343 -0.00021849281663 -0.00068323203329 -1.065753781e-05 0.00017505549011 -0.00083959672302 0.00015125887417 
0.00037619911031 -0.00097225539636 1.681305663e-05 0.00048793647672 -0.00089679462353 -3.4671848421e-05 0.00041853146913 -0.0010147587389 -8.3686903487e-05 
-0.00010589076388 -0.001306742679 0.00014232427862 0.0002122184054 -0.00085289107693 3.3980744653e-05 0.00043653468049 -0.00099255712899 9.1595251341e-07 
0.00010984506117 -0.00054314445825 -2.1547870065e-05 0.00030611012858 -0.0011509771552 -0.00062278167653 -2.6788197154e-07 -0.00068860946346 1.9661182279e-05 
0.00039941005651 -0.00074233931414 -1.7251290322e-05 0.00046318157969 -0.0012425182711 -0.00014346242216 0.00059253302903 -0.0014582657493 -0.00012100922888 
0.00040550649888 -0.00090042239245 0.00020259282743 0.00051529848206 -0.0008924016517 -0.00013241461413 0.00046132025957 -0.00092743659348 -6.7804028617e-05 
-1.0351724982e-05 -0.001305822634 -5.7503361614e-05 -3.455693249e-05 3.3950446399e-05 -0.0002232502614 2.2910289192e-05 -0.00029823061821 0.00066993170712 
1.4929027945e-05 5.5232048141e-08 0.00057930712828 5.5617102367e-05 2.4446178905e-05 -6.6262109489e-05 -8.3267109405e-05 0.00026503776023 0.0012999324396 
-0.00019229752333 -0.00045308456406 4.2480901479e-05 -0.00047194018859 8.2816093011e-05 -0.00039996874755 -0.0011181944555 0.00052352259934 0.0006942492054 
0.00019349640649 -0.00075581346384 -0.00023800631455 9.3783249636e-05 -0.00089841565835 -0.0003055843683 9.9178637953e-05 -6.4007014271e-05 4.5059558575e-05 
0.0027649803984 -0.00026881900404 -1.7523892846e-06 -0.00091525667048 -0.00085371393083 0.00052949587062 -0.00052619903255 -0.00066236393454 -0.0005446961178 
0.00058509134334 -0.00061092164156 -0.00019642444883 0.00052200592628 -0.00073197954695 0.00036659465385 -1.5698914426e-05 -0.0006250670108 -0.00035598128832 
0.00087995054497 -0.0026229814815 0.00013580200225 0.0020289982052 0.00033853532128 0.00044780345336 0.00083903938717 -0.0003655811223 0.00066828220848 
0.00051061195347 3.1770269909e-05 0.00011700519005 0.00021324750486 -0.00096787699726 3.694127961e-05 -0.0014054159114 -0.00077671948477 -0.00038117567773 
0.00038219828895 -0.00042779929364 0.0002842118538 9.4620568096e-05 -3.426877018e-05 -4.6349808377e-05 0.00029786159754 -0.0018282580682 -2.2653178863e-05 
0.00022303073584 -0.0012013689378 -4.4131671e-05 0.00079636702784 -0.0011467509953 -5.0370581277e-06 0.00014741068873 -0.0012643639062 0.00011185942146 
0.00013910432625 -0.00066149352032 0.00045687003529 0.00090480236506 -0.0004458011743 0.00079521070276 -0.00057602290092 -0.0016753451985 -5.8757176226e-05 
0.00074034784313 -0.0012664399943 0.00020745395887 -0.00024519349498 -0.001570700454 0.00047691279894 0.0001322996401 -0.002378239109 -0.00053832416059 
1.3416511164e-05 -0.0010749159146 0.0001193064447 5.475121468e-05 -0.0010978872011 0.00029180104253 0.00065402464706 -0.0012960613371 -4.3891207998e-05 
4.7864306803e-05 -0.0016315299889 0.00034003459051 0.00051798757806 -0.00089861141098 0.00013279528922 0.00028977082928 -0.0009920707605 -1.8093835938e-05 
-0.00017051778599 -0.00089339825441 0.00013213377975 -0.00058342070916 -0.0012065039026 -0.0011372274233 -8.3508278793e-05 -0.00030739251496 0.00015291973289 
0.00041690276677 -0.0023439936694 0.00021895712683 0.00042784130129 -0.0016066541877 -0.00036708468736 0.00041210336517 -0.0012176497338 -4.4942308741e-06 
-0.00027458441777 -0.0008394896363 0.00047154804915 0.00016096224488 -0.0014132425391 -4.0825597268e-05 -6.0274600294e-05 -0.0010563417488 0.00015318720832 
0.0011159479909 -0.00062762184002 0.00018068757493 0.00056155222313 -0.00070519335718 -0.00026271391007 0.00032755444169 -0.0013254921461 -0.00015232809667 
0.00012979327618 -0.0011271492362 -0.00013593616384 0.00030597198755 -0.0013499907208 -0.00022231030643 0.0010657710963 -0.001213792605 -2.9229984568e-05 
8.6039964891e-05 -0.0012187795279 0.00022800695702 0.00019887467925 -0.0015527622549 -0.001557838003 -0.000243428615 -0.00060065858391 -2.0609453984e-05 
0.00060550575269 -0.000692467875 2.9151400942e-05 0.00017101473796 -0.001427040172 -0.00078314585823 0.00021735128061 -0.0014177229755 -6.9375233688e-05 
0.00030985621992 -0.0010290186714 -3.6097389244e-05 0.00097394478039 -0.0012719449843 -0.00020632441241 0.00027800714214 -0.00066282312953 -0.00014276177825 
0.00033906011652 -0.00078743075817 -0.00032225880334 0.00010307706306 -0.0011536374679 9.4247780615e-05 0.00051899103152 -0.0013342150794 -0.00042798584962 
5.2689300719e-05 -0.0012341597478 -0.00026720467327 0.00016392775372 -0.0012890708697 0.00013608497291 0.00045618649449 -0.0013499570889 1.0521731527e-05 
0.00038683830528 -0.00090508348331 -1.3320594836e-05 -0.00017990731379 -0.0013745243452 -0.00040591451813 5.6147334801e-05 -0.00092326656237 -3.7379768118e-05 
0.00052407122356 -0.00098335900391 0.0002373468907 0.0005902074679 -0.00093465786962 0.00016183830336 0.00019339223745 -0.0011892335886 0.0001996687013 
0.00014796803608 -0.00061090687378 -1.5288566165e-05 0.00053768256531 -0.0015236166838 1.5784846452e-05 0.0007179716039 -0.001271139197 0.0006508527086 
0.00073721806384 -0.00075147124991 4.2646752966e-06 0.0005346970456 -0.0011438326919 0.00012083547513 7.3162242297e-05 -0.00071055059023 0.0003946468654 
0.00038489825609 0.00031406145251 -2.6798413225e-05 0.00014700558111 -0.00064083935534 0.00058693905444 4.8159293225e-05 -0.00017240745727 0.0012708347862 
-0.00044517449333 -0.00084541859867 0.0012996721815 3.0106478014e-05 -1.6111022562e-05 0.00019851661744 0.00058178850607 0.00056927768789 0.00059134599802 
0.00033055944094 -0.0001288431826 0.0014028564271 -0.00088334272105 -0.00070459667869 -5.5053552752e-05 -0.00014628649621 0.0016406234141 -0.0010117193583 
0.00018304079961 -0.00042209406522 0.0013144477658 -0.00050930567032 -6.7830923794e-05 -0.00063120751774 -0.00043482230061 -0.00067917264779 0.00014799555349 
0.0018092786888 0.00072296698177 -0.00021109656052 0.00030491601831 -0.00081992542255 0.00023219156003 0.00020910754607 -0.0002967493147 0.00012777007596 
0.00040209684831 -0.00017021684078 9.1146767057e-05 0.0011001328183 -0.001377242797 0.00072696700894 0.00082635552771 -0.00045292535497 6.7021756865e-05 
9.5565564385e-05 -0.0005495576716 -0.0001011249977 0.0012696217616 -0.00098369058872 0.00011562413676 0.00064077664982 -0.00062365507182 0.00036315033823 
0.00034606821558 -0.00055656292073 0.00024920068884 0.00075894476983 -0.0010992314416 3.2298551488e-07 -0.00027340276779 -0.00013950168463 0.00093473872982 
-0.00031762017948 0.00068348565747 -4.1847317495e-05 -0.00078364679658 -0.0014333465482 0.0010905141 -0.00085809058232 -0.00073017003349 2.3210867851e-05 
-0.00029953453863 -0.00081870804012 -0.00020345489782 0.00053955323582 -0.00020497614422 0.0013606560979 0.00057063859983 -0.00060571539355 0.0013461156102 
0.0015719961982 -0.00073782477812 -4.3667612496e-05 -0.0008226525575 0.0001312474813 0.00029284609744 -0.0005267579629 -0.00073261871899 -0.0001123345827 
0.00064391939662 -0.00035235912206 -0.00066785702973 -0.00061853009331 -0.00066194387165 1.3678987027e-05 0.0010362278377 -0.00064944138496 -0.00014549734185 
-0.00023352853709 -0.00065439732777 0.00036854661095 0.0003501554806 -0.0014143834879 0.00031944824696 0.00014282485574 -0.00029411293942 0.00040586207101 
-0.00038900664829 -0.00099263417485 4.0771491139e-05 9.180422609e-05 -0.00073842892802 -1.4305524264e-05 -0.00038205232251 -0.0010358735986 -0.00033438600237 
-0.00013131132815 -0.00067873058119 -3.7775693087e-05 -0.00063977765321 -0.0012990588584 -0.00080009088476 -0.00014891578278 -0.00095738542854 -0.00071024285057 
-4.5995333918e-05 -0.00093607520144 3.8569813202e-05 -0.00033755769829 -0.00087319642034 -0.00016515216858 0.00018927655713 -0.00077112012335 0.00017913308833 
0.00036607244586 -0.0010815079796 -5.6210747352e-05 -0.00020066326339 -0.00093918315588 -0.00021638307216 0.00023778280871 -0.00075887371876 0.00068317322975 
-0.00058280670109 -0.0010631591504 -3.7375130334e-07 0.00015088978054 -0.00077936665773 6.3032998531e-05 0.00065771891848 -0.0013237036471 -3.9984934583e-05 
3.6707052031e-05 -0.00080116739946 -0.00045184203949 0.00027083514305 -0.00092615735811 -0.00032532905867 0.00018231979133 -0.00084704155075 -0.00052173517543 
0.00023242364921 -0.0012546115768 2.095479519e-05 -0.00061389875678 -0.00065076329606 0.00020325495001 0.00023564940416 -0.0011300205045 1.9349966997e-05 
-0.00018018713147 -0.001156546985 0.00028349868233 -0.00025940415583 -0.0010797493908 -1.1332293461e-05 0.00023365841783 -0.0013215959295 8.0575101798e-06 
0.00039564460244 -0.0010063830086 -0.00040766884104 0.00020320838216 -0.001126797578 5.2904656498e-05 0.0004996221419 -0.0012506875696 -5.4874528297e-05 
0.00064834322974 -0.00063473920142 -0.00016580071077 -0.00091065194047 -0.0020636661532 0.00032125849543 0.00035042212741 -0.0011970930534 0.00031276642994 
0.00025371742479 -0.00073410322853 -1.5894649773e-05 0.00018054907464 -0.0010593586211 -3.3747556642e-05 0.00010136051174 -0.0013942502036 -0.00019167981964 
0.00021529856993 -0.0010826470933 0.00023852367942 0.00071716253778 -0.0012253982015 -3.1656265675e-05 0.00025208908622 -0.00099404321881 -7.9963656602e-05 
0.00048435409622 -0.0012569436067 -7.475394594e-06 0.00079677054603 -0.00077392163154 -8.9889445188e-05 -1.5130707264e-05 -0.0012486596679 -0.00021415123812 
6.1696811085e-05 -0.0011143427923 -2.9845084339e-05 0.00018354496823 -0.0013348292655 -5.6593776343e-05 0.00052296986368 -0.00087117751247 0.00026732606236 
0.00012412293644 -0.0012683784868 1.9932288463e-05 0.00021294491827 -0.00077602368515 -0.0003583936132 -0.00010398799508 -0.0010664920386 1.2551823922e-05 