# vtk DataFile Version 4.1
vtk output
ASCII
DATASET UNSTRUCTURED_GRID
POINTS 1274 float
0.0604126 1.68273 0.0425899 0.0880304 1.71743 0.126178 0.044236 1.68407 0.220245 
0.089176 1.76869 0.0595267 0.0608235 1.88001 0.0413306 0.085059 1.83418 0.0885505 
0.09783 1.77865 0.199875 0.060091 1.84982 0.217714 0.10112 1.9604 0.0394296 
0.0986114 1.90137 0.0868666 0.0888866 1.89665 0.147834 0.114103 1.93755 0.206022 
0.0519319 2.0399 0.0577576 0.0910036 2.13418 0.0407954 0.0923721 2.07139 0.12588 
0.0547089 2.0364 0.203971 0.103078 2.13027 0.214872 0.0491597 2.21818 0.045421 
0.102433 2.2525 0.0726911 0.103873 2.19017 0.085178 0.0392457 2.15854 0.094649 
0.113835 2.24129 0.135051 0.0388052 2.20513 0.212572 0.0881626 2.19085 0.169522 
0.0856514 2.30319 0.0393975 0.0911349 2.30728 0.197182 0.0487066 2.37839 0.210834 
0.0487893 2.39212 0.0346031 0.110289 2.48598 0.06173 0.100592 2.41621 0.0792821 
0.0448266 2.50434 0.0382397 0.100319 2.41586 0.149042 0.0840392 2.4675 0.203703 
0.0565498 2.57273 0.0446653 0.111013 2.63591 0.0539069 0.0474505 2.52315 0.119112 
0.104911 2.58399 0.12724 0.0379875 2.55043 0.204805 0.0942899 2.58173 0.198619 
0.0637254 2.7287 0.0572541 0.109309 2.69659 0.0982415 0.0832322 2.64624 0.20435 
0.0600361 2.72743 0.212869 0.111539 2.67384 0.259668 0.108252 2.76785 0.121937 
0.109119 2.82458 0.0572151 0.0920475 2.80672 0.216572 0.110453 2.83058 0.152692 
0.139508 1.68312 0.0449416 0.230935 1.69998 0.0684719 0.150365 1.738 0.0875242 
0.195895 1.70911 0.144247 0.155992 1.68161 0.218991 0.248378 1.68622 0.201949 
0.138745 1.74375 0.160171 0.157958 1.75044 0.224204 0.205447 1.77428 0.0499413 
0.244497 1.80783 0.120909 0.147199 1.86336 0.0566897 0.24709 1.87279 0.0500373 
0.144178 1.80541 0.127165 0.217381 1.78142 0.221416 0.156428 1.87398 0.211394 
0.198666 1.8315 0.170041 0.218805 1.94724 0.0476179 0.160139 1.93313 0.0752478 
0.20401 1.9953 0.0856234 0.144634 1.9843 0.127027 0.19964 1.89099 0.132178 
0.20003 1.95929 0.226678 0.171812 1.93052 0.176791 0.151186 1.99249 0.197675 
0.201972 2.00547 0.161242 0.237779 1.92531 0.180368 0.145707 2.02572 0.0609934 
0.204708 2.07202 0.117116 0.194414 2.11121 0.0461955 0.247133 2.04039 0.0498598 
0.203179 2.1368 0.109348 0.136313 2.09269 0.0747165 0.136163 2.05121 0.214278 
0.193607 2.12446 0.215272 0.250103 2.01858 0.206459 0.247984 2.11165 0.159682 
0.155459 2.04971 0.154323 0.207973 2.06102 0.188682 0.154086 2.21855 0.0424778 
0.233613 2.22622 0.050835 0.238168 2.16249 0.0609615 0.140746 2.15693 0.136929 
0.204031 2.22368 0.149306 0.141484 2.21978 0.207426 0.241289 2.26498 0.235034 
0.203083 2.29194 0.056673 0.152027 2.38742 0.0388876 0.24633 2.38367 0.0496863 
0.188284 2.35704 0.0906795 0.141475 2.32006 0.137141 0.241713 2.32036 0.129473 
0.194688 2.30525 0.212895 0.152883 2.38991 0.202502 0.246428 2.36552 0.221501 
0.209137 2.36419 0.171166 0.212432 2.45297 0.0384871 0.173793 2.49761 0.0611215 
0.241887 2.43255 0.0900209 0.145987 2.49539 0.125841 0.191989 2.41918 0.134207 
0.205628 2.46875 0.209021 0.143003 2.49422 0.218767 0.243447 2.41707 0.182962 
0.155467 2.56264 0.045403 0.20096 2.59686 0.124815 0.204405 2.52902 0.10479 
0.145971 2.55708 0.226547 0.198865 2.63636 0.195318 0.242648 2.54342 0.213935 
0.185382 2.53083 0.179595 0.243807 2.60787 0.235269 0.159758 2.59319 0.171887 
0.163406 2.61981 0.254192 0.193654 2.64187 0.047817 0.243993 2.67111 0.123864 
0.156786 2.73676 0.0656853 0.189437 2.75389 0.124312 0.148972 2.65658 0.138958 
0.14143 2.73143 0.223655 0.144311 2.66466 0.202772 0.193675 2.69662 0.170941 
0.195335 2.68449 0.238357 0.195971 2.81094 0.0556967 0.162909 2.81628 0.117456 
0.207491 2.81794 0.20867 0.151336 2.787 0.177555 0.236717 2.77427 0.164512 
0.224339 2.83386 0.140999 0.289135 1.70621 0.124746 0.283281 1.76156 0.0525114 
0.341328 1.70387 0.0541633 0.297179 1.76514 0.20276 0.338307 1.68543 0.213332 
0.366361 1.74888 0.186603 0.347041 1.81819 0.118028 0.360292 1.85958 0.0581872 
0.300073 1.85057 0.0889743 0.251875 1.8557 0.217917 0.344855 1.85693 0.223887 
0.302792 1.77093 0.133595 0.290514 1.82805 0.1691 0.296795 1.90437 0.122883 
0.296581 1.96176 0.0477557 0.353266 1.92848 0.0831383 0.253809 1.96907 0.125308 
0.344774 1.97908 0.142573 0.301987 1.95129 0.214677 0.298197 1.89193 0.186186 
0.293848 1.89645 0.252315 0.307428 2.12539 0.0460597 0.348137 2.03592 0.0623329 
0.250942 2.10341 0.0831168 0.306338 2.06927 0.131998 0.315143 2.12598 0.230804 
0.333398 2.04169 0.203375 0.349471 2.09849 0.17765 0.278545 2.07553 0.214138 
0.266918 2.16385 0.117075 0.360072 2.1675 0.120381 0.34984 2.20615 0.0391538 
0.287852 2.20134 0.0725334 0.298902 2.22696 0.134036 0.25538 2.20023 0.215216 
0.342416 2.20279 0.218473 0.252528 2.2566 0.173903 0.31075 2.15365 0.168641 
0.34453 2.25297 0.17579 0.306445 2.28465 0.0532768 0.336405 2.34094 0.117513 
0.355083 2.37509 0.0553047 0.285136 2.34154 0.0798346 0.299956 2.29543 0.210332 
0.355507 2.36809 0.2288 0.303321 2.29305 0.140382 0.293989 2.34995 0.164569 
0.290715 2.46554 0.0541088 0.354644 2.40694 0.124891 0.25941 2.49715 0.135442 
0.285237 2.41141 0.131673 0.346964 2.49337 0.126759 0.293574 2.4868 0.205318 
0.337209 2.43275 0.195387 0.259895 2.55356 0.0478888 0.303206 2.62751 0.0489314 
0.358587 2.56661 0.0532501 0.255678 2.56625 0.114218 0.351802 2.62075 0.0923839 
0.310785 2.59537 0.136246 0.334071 2.55528 0.207023 0.250845 2.61041 0.165147 
0.257173 2.72395 0.0600238 0.342957 2.74378 0.0557857 0.307317 2.69769 0.103136 
0.33181 2.65946 0.146334 0.299399 2.64512 0.230162 0.287096 2.7483 0.137299 
0.252296 2.72133 0.208976 0.362681 2.7404 0.19853 0.352361 2.67415 0.205193 
0.318735 2.71998 0.25416 0.311592 2.82996 0.0545045 0.359976 2.79771 0.0930216 
0.259868 2.79423 0.0915727 0.283535 2.80419 0.213987 0.339518 2.8039 0.166831 
0.339204 2.78664 0.237291 0.439222 1.68183 0.0515333 0.455313 1.74143 0.0840357 
0.388212 1.72028 0.126412 0.440809 1.70169 0.218839 0.442215 1.74424 0.156269 
0.401051 1.77585 0.0396958 0.448123 1.85765 0.0560465 0.454118 1.81119 0.135839 
0.409518 1.79292 0.220491 0.399936 1.88846 0.133568 0.489408 1.78253 0.217414 
0.463528 1.85418 0.226156 0.391732 1.82386 0.165265 0.407848 1.94298 0.0386497 
0.393008 1.98746 0.0894044 0.461219 1.92529 0.0735592 0.451571 1.98216 0.136249 
0.383376 1.95964 0.224446 0.489151 1.8961 0.136188 0.485618 1.96456 0.210649 
0.407547 1.89612 0.210478 0.413463 2.13241 0.0409568 0.443101 2.02299 0.057514 
0.404467 2.07556 0.0786671 0.396488 2.07229 0.143732 0.433627 2.13852 0.139899 
0.3963 2.13274 0.215888 0.452345 2.02654 0.221555 0.498224 2.12322 0.220545 
0.397784 2.06045 0.209135 0.496711 2.12503 0.151875 0.450898 2.04654 0.162744 
0.387021 2.24796 0.124805 0.444163 2.2091 0.0615059 0.494578 2.17765 0.0964247 
0.494216 2.23683 0.143272 0.448767 2.2133 0.200739 0.392091 2.24626 0.215634 
0.390946 2.18902 0.174607 0.411394 2.29709 0.0617051 0.440668 2.38809 0.0496564 
0.47116 2.32763 0.0674035 0.467363 2.26927 0.0870414 0.44235 2.31831 0.130737 
0.41684 2.30279 0.207687 0.494845 2.28807 0.207832 0.45548 2.37907 0.222473 
0.381394 2.35399 0.165712 0.407675 2.46414 0.042381 0.448262 2.50503 0.0789939 
0.488732 2.46999 0.120395 0.439162 2.43764 0.100305 0.41733 2.40739 0.15064 
0.450463 2.51362 0.139961 0.396333 2.47472 0.209397 0.490563 2.40458 0.127408 
0.486788 2.47403 0.222056 0.496582 2.41952 0.191573 0.449243 2.45855 0.171307 
0.413044 2.63615 0.0481007 0.451183 2.56685 0.047607 0.499899 2.63123 0.0364974 
0.405257 2.54581 0.0938496 0.399562 2.59742 0.136805 0.491664 2.59017 0.138115 
0.4465 2.54813 0.220956 0.393575 2.57929 0.20331 0.491116 2.59023 0.207576 
0.444628 2.67075 0.123577 0.400905 2.74673 0.12376 0.447482 2.7385 0.061011 
0.38882 2.69415 0.0728074 0.408251 2.64066 0.201272 0.498357 2.65266 0.211724 
0.498288 2.76392 0.127814 0.452411 2.73537 0.220906 0.488596 2.70023 0.167454 
0.38964 2.7489 0.262222 0.408964 2.82495 0.0528046 0.499126 2.82049 0.0610588 
0.446003 2.79644 0.0994783 0.393532 2.82655 0.221005 0.453319 2.80192 0.261003 
0.556928 1.69002 0.0528254 0.547159 1.75545 0.0910996 0.506781 1.72752 0.136705 
0.592225 1.7292 0.126375 0.550479 1.69838 0.212301 0.556909 1.75196 0.171466 
0.507279 1.77264 0.0406502 0.603043 1.7748 0.0489523 0.553749 1.85732 0.0661245 
0.504289 1.82268 0.0876101 0.546074 1.80225 0.135141 0.60226 1.78919 0.210458 
0.614296 1.88903 0.14451 0.559187 1.86432 0.222389 0.506081 1.83364 0.178363 
0.513003 1.9519 0.0387964 0.591875 1.93943 0.0643745 0.506778 1.95348 0.105888 
0.555172 1.90676 0.109925 0.506937 2.00989 0.0760754 0.589343 1.99682 0.0915636 
0.546856 1.98908 0.138678 0.606174 1.94163 0.219575 0.541906 1.92685 0.181325 
0.543364 1.92886 0.260494 0.509193 2.12096 0.0636422 0.561952 2.04456 0.0485633 
0.614851 2.13444 0.0628563 0.5056 2.06177 0.129493 0.606943 2.07567 0.134991 
0.538942 2.03804 0.224898 0.611337 2.13192 0.209989 0.597237 2.02039 0.184944 
0.550264 2.0889 0.177973 0.559932 2.09991 0.249482 0.542079 2.20167 0.0514583 
0.538082 2.25433 0.0984126 0.55219 2.16212 0.128984 0.594993 2.23526 0.134769 
0.536193 2.19595 0.224803 0.583974 2.18689 0.184137 0.595352 2.22051 0.236533 
0.517399 2.29641 0.0399489 0.555928 2.3391 0.122304 0.609814 2.29582 0.042502 
0.560924 2.38518 0.0575373 0.608091 2.29966 0.111802 0.606787 2.28832 0.216379 
0.540547 2.37353 0.208254 0.543431 2.28098 0.158316 0.592784 2.34584 0.177863 
0.594874 2.35574 0.239616 0.505544 2.47309 0.051809 0.599149 2.48496 0.0568154 
0.559316 2.44111 0.0894227 0.541359 2.50411 0.12736 0.595714 2.40173 0.13431 
0.58992 2.47234 0.205037 0.598131 2.40284 0.201394 0.536942 2.43444 0.241043 
0.536087 2.44583 0.151688 0.550285 2.49622 0.258931 0.552803 2.55328 0.0575443 
0.546719 2.60792 0.100745 0.597741 2.58612 0.133962 0.534447 2.54912 0.227973 
0.547344 2.55587 0.165362 0.60506 2.53444 0.175824 0.549179 2.62772 0.171409 
0.541207 2.61265 0.239363 0.600607 2.53806 0.24239 0.547321 2.68363 0.119645 
0.595965 2.64388 0.0619939 0.542993 2.71799 0.0413895 0.608878 2.75331 0.124205 
[...]
POINT_DATA 1274
FIELD FieldData 10
VELOCITY 3 1274 double
0 -1.078 0 -2.65436464e-05 -1.078035945 -4.3065499858e-05 0 -1.078 0 
-0.0014320783624 -1.0775221844 -0.00083047996609 -0.00029472436699 -1.0778875542 -0.00020644271163 -0.00089064978635 -1.0778531129 0.00013386744531 
0.00033263110873 -1.0785303651 -0.0009456279958 0 -1.078 0 -0.00018036019224 -1.0777824991 -0.00011923166779 
-0.0028476810331 -1.0757771583 0.0010932707688 -0.00062159335629 -1.0777696897 0.0013201803038 0 -1.078 0 
0 -1.078 0 0.0026533825947 -1.0795706487 0.0025429855146 0.00053896394111 -1.0782820202 0.001256858176 
0 -1.078 0 0 -1.078 0 1.6289943752e-05 -1.0778950278 -3.4474229613e-05 
-0.0007500944685 -1.0768427432 0.00022281034726 -0.00026951262638 -1.076796814 0.00039897817567 3.6151054856e-05 -1.0775860754 0.00034425188838 
0 -1.078 0 -0.003468313639 -1.0762915448 0.002527492065 -0.0034538497936 -1.0755275543 0.0018697644423 
-0.00016532593573 -1.0770266307 -0.0003538816929 0 -1.078 0 0 -1.078 0 
-0.00096847606753 -1.0784503783 -0.0008352938289 0.00017052461075 -1.0781855287 0.00016255564505 -0.00096847606747 -1.0784503783 -0.00083529382885 
0.00019990759824 -1.0780610761 0.00017789076859 0 -1.078 0 0 -1.078 0 
-3.1616485134e-05 -1.0778521136 1.191795359e-05 0 -1.078 0 0.0023472973622 -1.0747415243 -0.00015501912247 
0.0018691625949 -1.0742822241 -0.00020754208987 -4.3312848152e-05 -1.078015932 -1.1801800181e-05 -0.00027115383934 -1.0776314765 -0.00014981046491 
-8.8808055775e-05 -1.077977696 -9.5599506567e-05 -7.3451796187e-05 -1.0784856507 -0.00050960300282 -0.00067616578982 -1.0776834609 -0.00033898890371 
0 -1.078 0 -0.0021060694203 -1.0765421583 -0.00016456926776 -0.00029097430256 -1.0784480626 -0.00063209700813 
0 -1.078 0 0.00027404980227 -1.078389681 -0.0004860835656 -0.0015832258097 -1.0768313508 -0.001379877976 
-0.00036660529812 -1.0790948859 -0.00078091348827 0 -1.078 0 -0.00039033629184 -1.0769576889 -0.0022350000235 
0.00079539876069 -1.0785206225 -0.00032350847059 0.00010882257792 -1.0790710961 -0.00018600043466 0 -1.078 0 
0.00065077800947 -1.0785375608 -0.0006590590625 0.00031327389873 -1.0788688555 -0.00051957003985 0.00083052760615 -1.0772244656 -0.00095695393974 
0.00034061279285 -1.0782033335 -0.0004365627405 -0.0013544802941 -1.0767818356 0.00020584035754 -0.00012160000942 -1.0779434532 -9.4600423774e-05 
-0.00043970877869 -1.0779789561 -0.00049559003081 0 -1.078 0 0.00056515747477 -1.0775258535 -0.00051507270579 
0.00063136203902 -1.07797026 -0.00027738636891 0.000596987314 -1.0780730039 -0.00033005872574 0.00017877194375 -1.0769799626 -9.7023733592e-05 
0.00028488265981 -1.0784615614 4.090201343e-05 -3.7841910502e-05 -1.0772679509 0.0004434288552 -2.5525613187e-05 -1.0774737471 -5.8465062981e-05 
5.1655578363e-05 -1.0778824548 9.8098889137e-05 -3.1016202626e-05 -1.0772105406 -0.00026644282604 0.00024024082228 -1.0772029659 0.00041127463179 
0.0038525405875 -1.0844941526 -0.0013088839056 9.7405575344e-05 -1.0778964667 0.00014561639071 2.0808284141e-07 -1.0789422206 0.00011970070621 
0.00019607473804 -1.0789861397 -0.00099378398434 0.00100640951 -1.0780382826 -0.00023186708814 4.9917690845e-05 -1.0782848577 -2.1557413114e-05 
0.00022374401104 -1.078296139 0.00018285721409 0.002842441415 -1.0790860409 0.0028842861841 -0.00023384857091 -1.0764917705 0.00059223960782 
0.00019465318259 -1.0841924423 -0.00022139044362 0.0034787384185 -1.0836136672 0.00048992798284 0.00073190990793 -1.0798470211 -0.00072910031072 
0.00096351509122 -1.0773992135 0.00099131027615 0.0034812766205 -1.0835374039 -0.00059425717674 -1.9559928224e-06 -1.0775051737 0.00011701581559 
-0.00016280361919 -1.0763756673 -0.00032885182622 0.00020919802166 -1.0772846288 -0.00016659828816 -0.002814847742 -1.0761300552 0.0026630490025 
-0.0013764769484 -1.0779268342 0.0002791378394 0 -1.078 0 0.00039564508069 -1.0786287697 0.0011346957786 
0 -1.078 0 0 -1.078 0 -0.00018424623119 -1.07817839 -0.00014845446506 
0 -1.078 0 0 -1.078 0 0.0017718525196 -1.0799100507 0.0004655215306 
0.00050395306988 -1.0787990441 0.00059697945481 -3.7788267268e-05 -1.0780017308 1.1174826459e-05 -6.3061075001e-06 -1.0785173642 0.00038101279269 
-0.00023879658179 -1.0783151184 -9.2910376328e-05 0.00056002220576 -1.0780135284 -0.00036362834101 0.00034445567331 -1.0780021745 -0.00077879791633 
0.00012846460973 -1.0780030685 -0.00011201677816 -0.00016490716893 -1.0778898608 -0.00023899021658 0.00012066319928 -1.0779900671 -0.00011509779741 
-0.00065562792298 -1.078247484 0.0004011358463 -0.00046903670277 -1.07717796 0.00067834938609 -0.00012161572357 -1.0784361309 0.00017952657483 
-3.4359513485e-05 -1.0779333648 -6.7343352037e-05 -0.00071440823749 -1.0756134032 -0.00044553177221 -0.001776159181 -1.0754660992 -0.00088163630535 
-0.00012135952623 -1.0767701761 0.00033686902716 0.0019862050486 -1.0773560263 0.0018717399802 0.00028476890696 -1.0778899425 0.00017648172789 
-0.00014027516957 -1.0776053477 0.00062422232901 0.0017279102707 -1.0783377101 0.0014635876263 0.0013404026395 -1.0767180925 0.0012898267665 
-0.0013656382614 -1.0765353688 0.00059915197141 0 -1.078 0 0.00017253461259 -1.0785927042 0.0004084066928 
0 -1.078 0 7.6070495708e-06 -1.0778209276 -6.3646902408e-06 0.00011638607738 -1.0785121091 -0.00071177837766 
0.0015622970893 -1.0780471678 0.0004258532798 -0.00048691477525 -1.0778040003 -0.00084262436049 -0.00015808232455 -1.0781565043 -8.394229437e-07 
0.0024362969569 -1.0771662413 0.0020134986004 0.00037916145587 -1.0777612931 -0.0011267288395 -7.9189190246e-05 -1.0777148497 -0.0012422000928 
-0.00027503987879 -1.0782082434 -0.00052479736415 3.9559638802e-06 -1.0785256964 -0.00082829098091 0.00041982667704 -1.0777447566 -0.00052745306701 
0.00012750471046 -1.0777118933 -0.00030801527042 2.852281306e-05 -1.0781845829 -1.7656412602e-05 0 -1.078 0 
0 -1.078 0 0.00023749205898 -1.0778968284 0.00010245773066 0 -1.078 0 
0.0010098188253 -1.0762000469 0.0015894865142 0.00015955998653 -1.0780823539 -4.7835371178e-06 2.9501780578e-05 -1.0780062128 -3.0830809355e-05 
-7.7614907949e-05 -1.0781795403 -0.0002884062406 -0.00013789191647 -1.0778841877 0.00021227291845 -0.00048924124852 -1.0783797981 0.0002715495869 
0.00027296234436 -1.0782305992 -5.7916199049e-05 0.0002176753994 -1.0783309311 8.4678930567e-05 -6.1983925986e-05 -1.0781011685 -0.00041120731129 
-1.543141585e-05 -1.0779834839 -6.1654983487e-06 0.00021951417308 -1.0769954238 0.00054995247568 0.00045543733927 -1.0779964733 0.00015184339462 
0 -1.078 0 -7.6611225645e-05 -1.078125242 -0.0003643169803 -7.2305621278e-05 -1.0782539361 -0.00012855616189 
-0.00024666671722 -1.0778585463 0.0003224259236 0 -1.078 0 -0.00015060769297 -1.0779477566 -3.6931261999e-05 
0.00040064403557 -1.0785990002 0.00058070334428 0.0014920065718 -1.0791018736 -0.0010200199851 0.00043869958643 -1.0773171012 0.00017342927347 
0.00025882110549 -1.0783891352 3.0850942011e-05 -0.00031860930439 -1.0779758219 0.0005816281303 -0.00019209085854 -1.0791858412 0.00023227878012 
-0.0002497887084 -1.0784605823 0.00051893956242 -0.00028042147823 -1.0779040754 -0.00054025219612 0.00019316629751 -1.0778315593 -0.00024638147405 
-0.00033299573387 -1.0782499309 0.00039085140662 0.00056090554479 -1.0793751579 0.00097878182388 0.0001149157941 -1.0783666442 5.4350936058e-05 
-0.00042345921329 -1.0765783985 -0.00072293243614 -0.00097740460273 -1.0773100478 0.00061938158343 -2.9601514505e-05 -1.077891645 -0.00013643797899 
0.00071676446438 -1.0755710677 -0.0012664737152 2.7896405617e-05 -1.0785270694 -0.00028475966896 0.0010298286794 -1.0787943323 -0.00034820480932 
5.9794161528e-05 -1.0781015296 -0.00012975697165 0.0003894039672 -1.0784092871 -0.00024642544686 -0.00018588181349 -1.0779699561 0.00056537733311 
0 -1.078 0 0.0025335173533 -1.0794667351 0.0006261222168 0.00070685450181 -1.0779112271 0.00039841495852 
0.00011397996786 -1.0779576043 -9.6571663436e-05 6.4750348656e-05 -1.0783882033 1.6649909767e-06 -0.0012884776509 -1.0754592163 -0.001460963673 
8.3714468636e-05 -1.0779507834 -0.00012129867638 0 -1.078 0 -0.0096163886158 -1.0664272238 0.0021379041189 
-0.0093162297803 -1.066208207 0.0022630810104 9.790881475e-05 -1.0774097669 -0.0012136296372 -9.0638413904e-06 -1.0779928152 -1.5076559322e-05 
-0.00032958552858 -1.0778637409 -0.000127988433 -0.00015003009222 -1.0753971731 -0.0014800094026 0.00013410665648 -1.0777825226 -0.00014179824452 
0.00034991266584 -1.0775104726 0.00021780903986 -0.00091600640592 -1.078048895 -8.1365261918e-05 0.0012714800891 -1.0780255055 0.0010653541112 
0.00080768932054 -1.0788662453 0.00050981200903 -0.00076102442015 -1.077640909 -0.0006177444133 0.00089042065302 -1.0787201533 0.00050265101464 
0.00074634536249 -1.078810543 0.00050975125737 0.0012844080361 -1.077815889 0.00042648005805 0.0011886959817 -1.0800239265 0.0027439448211 
-0.00018311974058 -1.0776608327 -0.00021148632861 0.0018728766666 -1.0771532773 0.0013156415672 0.0014355935202 -1.0783289638 0.00014985994326 
0.00015605452869 -1.073663409 0.0012675817811 -2.0631518334e-05 -1.0779732838 -3.9797532005e-05 0.00015845641418 -1.07808733 -0.00035822296626 
0.0015133315857 -1.0796357455 0.0021991426124 -0.00081297535652 -1.076968929 -0.00046109948939 0.0013677474557 -1.0779683269 -3.1559963727e-05 
0.0012133584062 -1.0723505781 0.0018975531541 -0.00096525003273 -1.0815769794 -0.0019501833601 -0.00081750425673 -1.0813269158 -0.0017341455975 
-0.00043776688377 -1.0782503523 -0.00031676822927 0 -1.078 0 -0.00039896487748 -1.0782647039 -0.00037541552161 
-8.1295320451e-05 -1.0779895996 -7.7840718655e-05 -0.00017873577954 -1.0783513379 5.3897437121e-05 0.00090404310583 -1.0773401763 0.00014881225126 
0.0018402148011 -1.0782695244 0.003245114831 -0.00076720299758 -1.0824601529 0.0012743426841 -0.00013702599347 -1.0796390556 0.0017816659485 
-0.00021830403318 -1.0781102967 0.00087840592288 -0.00064276940718 -1.0822865244 0.0017181117512 0.00018599752255 -1.0781042611 0.00014460882313 
0.00072915441869 -1.0768506449 0.00048092409517 -0.00052935029425 -1.0785415064 0.0010556120021 0.0021554326585 -1.0801120748 -0.0005977272348 
0 -1.078 0 -1.2801771553e-05 -1.0787641451 0.0001785845453 0 -1.078 0 
-0.00038448525774 -1.0783363511 0.00084935536601 -3.8905563544e-06 -1.0784229565 -0.00012930432754 0.00096114026792 -1.0774148484 -0.00035185035923 
6.0074048921e-05 -1.0782653926 0.00012386372116 -8.3162035486e-05 -1.0787164507 0.00038662437273 -0.00048864048913 -1.0778015919 -0.00015375630477 
-9.4053209545e-06 -1.0764200254 -0.00095406532362 0.00040626872963 -1.0785375473 0.00035997535944 -3.4378380041e-05 -1.0780004495 -1.416226622e-05 
0.00030662920423 -1.0786528029 0.00044633397622 -0.00038618673492 -1.0777229532 -0.0002580364411 0.00026561858204 -1.0782719104 -7.3556076145e-06 
0.00075513925768 -1.0772995453 -0.0011520476986 -0.00057448083568 -1.0775569545 -0.0001637252075 -0.00054820880506 -1.0739442663 0.0031049036559 
0 -1.078 0 0.00010592044033 -1.077901627 1.62450703e-05 0.00027176162555 -1.0772732596 -3.1878462818e-05 
-0.00016195409805 -1.0756706039 -0.0014855423254 -1.5426274987e-05 -1.0779807812 -4.5438059516e-06 -0.00030040026986 -1.0766422576 0.0010551653766 
3.412331781e-05 -1.0778728974 -6.366207823e-06 4.4177131714e-05 -1.077870605 2.0724734078e-05 7.9120717553e-07 -1.0779170398 5.204641768e-05 
0.00046133730668 -1.0773573045 -6.9519359976e-05 -0.00063936682125 -1.0777005989 0.00033370232649 -0.00016929003458 -1.0780521013 7.9425765659e-05 
0.00030568454313 -1.0782421051 0.00017889994897 -0.00044789176276 -1.0783588578 -9.8552501381e-05 -0.0014202582026 -1.0783245887 0.0010080420332 
0.00031630225322 -1.0762747355 0.00068702005779 -0.00094839029563 -1.0761003036 0.0011119981216 4.6784558095e-05 -1.0780046823 0.00040232064855 
-0.00041583150804 -1.0771818263 0.0012941603485 0.0011082326979 -1.0775434918 -0.00019124191532 -0.0001349497187 -1.0763830129 -0.00018297346403 
0.00020487788414 -1.0777435248 0.00034506237235 0.00015642044478 -1.0776243591 8.9597417402e-05 0.00088851695709 -1.0782910516 -0.00018071225895 
0 -1.078 0 -0.00053034502019 -1.0785017772 0.0006006737988 -0.00014616582618 -1.0777722055 0.00033988865792 
-0.0010275255439 -1.0778005675 0.00070899852729 -0.00026372106531 -1.0774914348 0.0004400048743 1.176205533e-05 -1.0780158738 7.4901778788e-05 
-0.00069315113976 -1.0797236591 0.00023689319776 9.4275602492e-05 -1.0783657377 0.00024294793188 -0.0001117750958 -1.0793077435 9.2895339415e-05 
-0.00049980882707 -1.0778410068 0.0002829414064 8.7439282318e-05 -1.0777585631 0.00028273738584 6.6294257804e-06 -1.0779895711 -2.0427632281e-06 
-0.00053284956876 -1.0772948814 -6.9809523541e-05 0.0012368244472 -1.0787085994 -9.4511895152e-05 -0.0014450473339 -1.0775860894 0.0011001193184 
0.0007256331022 -1.0771414653 0.00019939345905 0.0018662659364 -1.0774410299 0.0011156308377 0.0013016399389 -1.0769615696 0.00050017489412 
0.0019128065061 -1.0760309427 0.0017133751502 0.00025936593729 -1.0779536838 -0.00016281749169 0 -1.078 0 
0.0001392540259 -1.0780824317 0.00019525805074 0.0022400746494 -1.0743777286 -0.00082745106766 0.00053439754306 -1.0771724671 0.00070089599625 
0 -1.078 0 7.4582745069e-05 -1.0781919563 -0.00033961605336 0 -1.078 0 
7.0410152093e-05 -1.0780648208 -4.4914474562e-05 0.0001130664968 -1.0789574855 0.00070255637292 0.00047252908578 -1.0788118563 0.00065738429228 
0.00025859175738 -1.0780661407 -0.00047128266813 0 -1.078 0 0.00056658140076 -1.078639703 -0.0013363615448 
0.00041301339205 -1.0779650629 -0.00056910329511 0.00067003351048 -1.0786503729 0.00029545113985 0.0005565257855 -1.0771488732 -0.00049637962595 
-0.00012955808556 -1.0781191953 0.00017288305143 0.00036763984728 -1.0794149041 0.00083226715849 0.00046737238368 -1.0795675666 0.002092691675 
-0.00093170102106 -1.0795227058 -0.00030100708464 0.00039334013788 -1.0786294372 -0.00098009824447 0.002825543854 -1.0795906634 0.00012415450446 
-1.5109825969e-05 -1.07861005 -0.00095499804068 0.00091972870811 -1.0791956664 0.00012743943722 0.0004645568167 -1.077771049 -0.00032836067715 
0.0011408664697 -1.0782152814 0.00070909982412 8.214941649e-05 -1.0780118079 -2.4566807041e-05 0.00029770110475 -1.0790503607 1.132361088e-05 
7.1296378292e-05 -1.0779517858 -3.0808837149e-06 -0.00066102952096 -1.0738683872 0.0029232631531 0.00020500735706 -1.0777829544 -0.00018578238253 
-0.0020411822111 -1.0760146979 -0.0012555059185 -0.00015799801354 -1.078004609 -0.00058321951874 -3.3316986408e-05 -1.077779759 -0.00021067025668 
-0.00074703314428 -1.0799107299 -0.00095854502899 4.2687902947e-05 -1.078031657 1.5569465047e-05 0.0016664327362 -1.077344935 0.00064594286674 
-0.00027611694166 -1.07817618 -0.0003658646689 -0.00052756171714 -1.0794177528 -9.7387397863e-05 -8.0546601114e-06 -1.0780125151 -2.8675493872e-05 
-0.00075081078936 -1.0775414551 -0.00061771249475 0.00013971189771 -1.0779931744 1.8975262488e-05 0.0017055453207 -1.0724883139 -0.0017481421224 
-8.6687865542e-05 -1.0780281277 -0.00014748934596 0.0002357501714 -1.0779654478 -4.8275069355e-05 -0.00027572421037 -1.0772300616 -0.00040730672614 
0 -1.078 0 -0.0022517072609 -1.0763074832 -0.0027587279737 0.00017693579078 -1.0773538017 -0.0016661074628 
-0.00067504315048 -1.0794197109 -0.0020768861017 0.001206073369 -1.0721599804 -0.0017819389917 -0.0025758558267 -1.0747640832 -0.0019268946144 
-5.6477745562e-05 -1.07798835 -0.0003341066562 -0.001112945028 -1.0759172865 -0.00049346521743 -0.00053783964244 -1.0755622156 -0.0038830428229 
0 -1.078 0 -0.0015593945453 -1.0778435584 0.00014772042446 5.8396922655e-05 -1.0779042118 -0.0001357891207 
-0.00064691281196 -1.0780506983 -0.0011908812083 0.0012076881127 -1.0774263666 -0.00015163169715 -0.00025853911727 -1.0774970863 -0.0010193235084 
-0.00015947298013 -1.0770637971 0.00080101780706 0.00040477966232 -1.0769303057 -0.00055410263861 9.928333074e-06 -1.0779105857 0.00071660606524 
0.0004222020161 -1.0773058129 0.00047580685718 -3.4636095771e-05 -1.0768554113 0.0011198979323 -0.00010807526521 -1.0781383609 -0.00020788937391 
-0.00014138079549 -1.0780950469 -0.00023748447555 0.00014652939766 -1.0787605749 -0.00086834351533 -0.001058865437 -1.0773902381 0.00016370356578 
0.00014826223757 -1.0776257913 0.0002888302102 0.00023493592428 -1.0775822699 -9.9361504175e-05 4.8863386878e-06 -1.0749567425 0.00088308671282 
-0.00077002516743 -1.0774394815 0.00027002082689 -0.0007480107281 -1.0763775653 0.00014997883131 -0.00023459460624 -1.078016223 0.00041937778645 
-6.6294144005e-06 -1.0780585069 4.7097325645e-06 -0.00031267061211 -1.0781607636 0.00016250173228 0.00022157231804 -1.0777625045 -0.00039819088581 
-0.00018339163362 -1.0781835041 0.00036831052163 -0.00039694507057 -1.0777713689 0.00034445215549 0.00041650815621 -1.0766708034 0.001921481216 
0.0013333074396 -1.0772720087 0.00035459961231 0.0016256657414 -1.0769884703 0.00025606942713 0.0017372275555 -1.0757983527 2.6382145634e-05 
0.0016355491391 -1.0755351438 -0.00086353558293 0.0024019306219 -1.0765664769 0.0017136561693 0.0014485187328 -1.0775671349 0.00052088774554 
0.00067097072405 -1.0774766371 -0.00050041271042 0.0005225951784 -1.0774741212 -0.0005747643482 0.00038058424683 -1.0770499569 0.00035033714842 
0.00076127566012 -1.075848712 0.00070156994973 0.00075316122246 -1.0763274139 -0.00064861975032 0.00089123418685 -1.0769887005 -0.0010313394424 
0.00046839496293 -1.0800318378 -0.0012227833138 0.00039432836588 -1.078096493 0.00041408621503 0.00014983807642 -1.0793942492 -0.00094454148863 
0.0003353248462 -1.0781291769 0.00033066014554 0 -1.078 0 -5.5092242679e-05 -1.0778355764 -0.00056274803491 
-1.5782826758e-05 -1.0779036241 -0.00041359907571 0.0002950231635 -1.0783196383 0.000324021732 -5.1698560557e-05 -1.0780955902 6.8153699445e-05 
4.5748389245e-05 -1.077967028 9.794592124e-05 0.0002113346687 -1.0778766758 0.00059307404841 -0.00010642196077 -1.0780372926 -0.00038468399854 
-0.00010967858713 -1.0782469183 -8.7006051919e-05 6.2893364086e-05 -1.0775954713 0.00016610748463 -7.3302203545e-05 -1.0781530563 -5.1330091316e-06 
0.00071241907939 -1.0772259094 -0.00061644847934 -0.00010361363535 -1.0780922149 0.00016948154705 -0.00018621489568 -1.0781099806 9.9255821838e-05 
-7.4159039027e-05 -1.0779902716 -5.3500243763e-05 9.1794435126e-05 -1.0780479546 -5.4286645257e-05 -0.00078500387464 -1.0781813373 0.00032704217411 
0.00011259593747 -1.0780588356 -3.3277434947e-05 -0.00016484433017 -1.0782385208 -2.1745609091e-05 -0.00099327784103 -1.0782656589 0.00081196879096 
-0.0010191556947 -1.077095519 -0.00049289504059 -0.0024014796729 -1.0768730843 -0.001708368084 -1.907812201e-05 -1.0778026967 -0.00019405951818 
0 -1.078 0 -0.0024500399587 -1.0765869107 -0.0015469686751 0.0018552062519 -1.0769691366 0.00049282781677 
0 -1.078 0 0 -1.078 0 -7.847504768e-05 -1.0792801575 -0.0019859484272 
0 -1.078 0 0.0015909104795 -1.0794369333 -0.00033908562161 -0.00011355269483 -1.0778638071 -0.00010028284301 
0 -1.078 0 -3.1998632345e-05 -1.078048747 5.025245681e-05 0.00039728618046 -1.0790521889 -0.00042972122909 
1.472987348e-05 -1.0782154838 5.3697370628e-06 0.0020032726875 -1.0771502265 -0.0004126127889 0.0016025621473 -1.078973453 0.0010455366346 
-0.00024257860793 -1.0784446996 -0.00098405314776 0.0010957731251 -1.0793283457 -0.00031534206339 0.0016470469849 -1.0795549052 0.00068370768177 
0 -1.078 0 0.0003626860823 -1.0771298397 0.00024097471146 0.00050676252324 -1.0770004079 -0.00022301518084 
0.00010678262031 -1.077638565 0.00036061268518 0.0016985971223 -1.0776559945 0.0008446674881 0.00056447479357 -1.0768924811 0.00044946337375 
0.00018472363602 -1.0779910116 -6.6912763711e-05 0.00030757713639 -1.077397667 -0.00033551577646 0 -1.078 0 
3.8712876606e-05 -1.0781619926 -7.917337706e-05 -3.2435416617e-05 -1.0777071217 -4.9996981499e-06 0.0005663317408 -1.0774098085 0.00020735514145 
0 -1.078 0 0 -1.078 0 3.5839558264e-05 -1.0771048509 0.00077707309073 
-5.8417874802e-05 -1.0769619564 0.00049078505608 0.00056202390884 -1.0787366465 0.00038973232287 0.00017247431971 -1.0779264228 0.00017355196438 