# vtk DataFile Version 4.1
vtk output
ASCII
DATASET UNSTRUCTURED_GRID
POINTS 1274 float
0.513422 0.552799 0.0379535 0.469775 0.650562 0.105143 0.488449 0.596609 0.268458 
0.49501 0.586939 0.0984912 0.423942 0.7553 0.0323155 0.424588 0.768127 0.119922 
0.475787 0.636887 0.212953 0.459535 0.669445 0.268648 0.394338 0.844113 0.0587322 
0.398585 0.812317 0.165163 0.446322 0.698334 0.214607 0.433155 0.73797 0.265757 
0.363268 0.901745 0.0319696 0.344151 0.967241 0.0523929 0.381518 0.877943 0.146402 
0.395163 0.84353 0.231727 0.345705 0.95668 0.259969 0.314459 1.03801 0.0387204 
0.391105 0.912959 0.0864923 0.448378 0.898541 0.11007 0.332592 0.995332 0.130103 
0.40898 0.914381 0.218469 0.310533 1.03745 0.265121 0.352208 0.929008 0.187682 
0.282039 1.10081 0.048693 0.328256 0.987132 0.200847 0.286719 1.10796 0.260298 
0.258176 1.16141 0.0336643 0.357546 1.11482 0.103326 0.302106 1.06836 0.109181 
0.289831 1.25059 0.0382188 0.303106 1.0448 0.200272 0.283821 1.09988 0.172214 
0.333533 1.25457 0.0923311 0.385662 1.15683 0.0378583 0.275832 1.14778 0.110151 
0.42193 1.14909 0.106194 0.260963 1.14988 0.208352 0.340136 1.10628 0.211208 
0.218774 1.25592 0.0332148 0.320513 1.18489 0.0540077 0.319749 1.15615 0.173615 
0.244991 1.19843 0.164387 0.287384 1.18268 0.26484 0.239346 1.22146 0.0933833 
0.372611 1.23053 0.0356631 0.236641 1.23 0.2363 0.21598 1.25603 0.149318 
0.54062 0.470646 0.0302079 0.611556 0.295597 0.0939628 0.595641 0.358469 0.122273 
0.597061 0.347262 0.198473 0.57631 0.388351 0.266499 0.610583 0.313214 0.262322 
0.541043 0.469169 0.209705 0.509052 0.557009 0.218406 0.603524 0.328582 0.0358989 
0.566557 0.417794 0.159181 0.484078 0.623869 0.0378754 0.608196 0.473971 0.046083 
0.546099 0.4747 0.0985112 0.549758 0.447686 0.268476 0.565295 0.571063 0.262773 
0.52762 0.511961 0.159676 0.551134 0.66814 0.0308599 0.445536 0.711113 0.0789589 
0.517622 0.697415 0.106624 0.471937 0.752767 0.178321 0.551587 0.54779 0.102073 
0.523061 0.65754 0.266703 0.446436 0.696725 0.145552 0.415267 0.776802 0.21453 
0.501046 0.680144 0.169559 0.554996 0.576862 0.168129 0.494328 0.779355 0.0922644 
0.535878 0.759854 0.14638 0.459425 0.813968 0.0363738 0.508483 0.723697 0.0397541 
0.484637 0.817223 0.150773 0.437332 0.835303 0.112881 0.364896 0.893323 0.269731 
0.499601 0.768863 0.260788 0.538884 0.616815 0.219091 0.563558 0.74709 0.220226 
0.46811 0.815004 0.213635 0.507236 0.704927 0.226189 0.46003 0.888677 0.0399204 
0.520419 0.852785 0.0356084 0.53608 0.790215 0.0326227 0.454086 0.875054 0.177582 
0.495843 0.849114 0.0950377 0.464157 0.869461 0.260663 0.438743 0.802889 0.269008 
0.417573 0.951407 0.0373635 0.373622 1.08873 0.0325885 0.466199 1.0039 0.0331277 
0.401014 0.995971 0.0952515 0.416361 0.94739 0.151113 0.469016 0.963936 0.0915553 
0.485359 0.940089 0.2631 0.419711 0.971892 0.26148 0.535275 0.98218 0.2689 
0.461055 0.950466 0.203427 0.384081 1.02324 0.0323969 0.365658 1.05354 0.0847413 
0.463149 1.03175 0.0901136 0.362945 1.06237 0.15831 0.395751 1.00408 0.196791 
0.441855 1.05051 0.264237 0.377288 1.02855 0.267487 0.483253 1.0025 0.236811 
0.457772 1.13512 0.0385419 0.47055 1.08257 0.123079 0.427619 1.04133 0.139297 
0.36077 1.08969 0.269156 0.527101 1.17777 0.175818 0.490036 1.10134 0.267884 
0.407726 1.08765 0.213441 0.43005 1.13294 0.264219 0.445513 1.11957 0.167017 
0.358705 1.1598 0.260112 0.511279 1.18659 0.0382255 0.49889 1.14617 0.120363 
0.437626 1.20502 0.0341931 0.370042 1.20078 0.101041 0.381326 1.13273 0.165696 
0.338831 1.23619 0.260951 0.453345 1.16684 0.207874 0.402924 1.20595 0.222185 
0.469484 1.19033 0.26612 0.487682 1.25457 0.0362705 0.312852 1.21179 0.137297 
0.460831 1.24843 0.225624 0.300373 1.21224 0.203907 0.475136 1.21096 0.169919 
0.3736 1.22692 0.163939 0.639371 0.232044 0.180012 0.563849 0.413457 0.031728 
0.660107 0.192768 0.0574238 0.660363 0.287897 0.213313 0.640269 0.240886 0.263508 
0.668816 0.174758 0.20741 0.642406 0.224215 0.115813 0.630975 0.404322 0.0363433 
0.591875 0.422185 0.0893131 0.527223 0.509325 0.265845 0.606193 0.485829 0.26322 
0.617277 0.291358 0.158772 0.639738 0.377172 0.246612 0.614143 0.459585 0.135792 
0.588587 0.54593 0.0375218 0.660671 0.422427 0.101057 0.534612 0.635387 0.131253 
0.605544 0.527957 0.147019 0.576623 0.523438 0.212029 0.592985 0.432776 0.220398 
0.613352 0.623124 0.266297 0.603831 0.716772 0.0390332 0.555369 0.609171 0.0644519 
0.570207 0.732653 0.0990716 0.566742 0.696759 0.158156 0.60014 0.708936 0.268226 
0.592398 0.633458 0.175304 0.645377 0.638599 0.211543 0.571678 0.671333 0.224492 
0.597629 0.757306 0.159967 0.587332 0.666027 0.0955219 0.639369 0.786284 0.0390311 
0.562112 0.794694 0.0909949 0.540923 0.81301 0.189993 0.545619 0.831069 0.261831 
0.616577 0.773339 0.265257 0.515374 0.871991 0.211475 0.625698 0.707521 0.201603 
0.600568 0.819641 0.221362 0.585235 0.836242 0.0347558 0.561054 0.858131 0.0930363 
0.565925 0.907979 0.0397013 0.504078 0.942398 0.0315439 0.552239 0.908505 0.260437 
0.598686 0.965905 0.265548 0.528675 0.861775 0.1464 0.506238 0.92164 0.17094 
0.536077 1.00156 0.0515558 0.523085 0.914362 0.104754 0.473076 1.05789 0.190653 
0.469348 0.99462 0.155329 0.53794 0.987764 0.137417 0.518479 1.04521 0.269178 
0.570529 0.943663 0.192206 0.436641 1.06501 0.0347799 0.538702 1.12314 0.03357 
0.573358 1.06311 0.0351738 0.504228 1.06279 0.0328709 0.552279 1.10653 0.0954932 
0.52272 1.04907 0.104144 0.542464 1.00741 0.208986 0.503193 1.1242 0.204864 
0.539146 1.23275 0.0892668 0.574708 1.21036 0.0322879 0.564321 1.17531 0.122862 
0.522806 1.08893 0.153255 0.605168 1.08591 0.268672 0.540595 1.23646 0.159341 
0.534176 1.21074 0.237662 0.567388 1.12819 0.179651 0.557103 1.07182 0.214883 
0.553746 1.13526 0.259467 0.640363 1.20573 0.042499 0.622586 1.20802 0.109899 
0.465445 1.21342 0.100895 0.647896 1.23426 0.221459 0.595891 1.19696 0.186258 
0.773193 1.16563 0.205748 0.678937 0.130998 0.0399456 0.69322 0.11972 0.114553 
0.721562 0.0322022 0.193219 0.682126 0.133987 0.265509 0.697646 0.0949827 0.183422 
0.636845 0.261849 0.038734 0.696661 0.315135 0.0396591 0.701818 0.225508 0.150936 
0.704692 0.265695 0.267352 0.640122 0.405167 0.173531 0.695514 0.199654 0.267448 
0.679075 0.326488 0.266702 0.663419 0.336173 0.138139 0.67834 0.457219 0.0406823 
0.655393 0.493449 0.0966942 0.651135 0.354432 0.0775197 0.685145 0.466332 0.157181 
0.650518 0.459842 0.216795 0.682294 0.278557 0.104557 0.729755 0.411866 0.198044 
0.691127 0.353753 0.201566 0.612095 0.643134 0.0351625 0.660116 0.524242 0.0349366 
0.635774 0.558011 0.0894289 0.595744 0.600181 0.119799 0.648426 0.605271 0.156765 
0.664211 0.682317 0.262131 0.639516 0.544472 0.269081 0.687687 0.580943 0.207462 
0.617613 0.57738 0.209467 0.674296 0.54534 0.150278 0.678622 0.514723 0.20648 
0.630053 0.71361 0.122751 0.658394 0.652184 0.0927606 0.697864 0.571874 0.0977254 
0.709355 0.625493 0.140623 0.717009 0.646237 0.206509 0.662212 0.820969 0.268701 
0.665867 0.670468 0.160436 0.624492 0.801254 0.117238 0.648226 0.874562 0.0391014 
0.689729 0.759626 0.0793876 0.707889 0.700291 0.0858984 0.68108 0.761785 0.148979 
0.637917 0.7737 0.203167 0.697174 0.71488 0.205166 0.61426 0.865669 0.265677 
0.582284 0.870611 0.183283 0.615038 0.967172 0.037251 0.668531 0.983037 0.0765721 
0.631638 0.867251 0.106506 0.644462 0.925515 0.088149 0.587263 0.905927 0.124758 
0.610082 0.965493 0.138874 0.635435 0.982803 0.209877 0.678667 0.847091 0.14788 
0.63555 0.920474 0.233673 0.643583 0.861955 0.206809 0.632295 0.914411 0.16906 
0.631228 1.10657 0.0300628 0.642271 1.0377 0.0390404 0.694816 1.09007 0.0358781 
0.575084 0.954933 0.0905027 0.595502 1.01896 0.0955097 0.667845 1.04107 0.115292 
0.578552 1.02903 0.26038 0.614201 1.02335 0.16198 0.672647 1.02923 0.183563 
0.616495 1.08802 0.0906987 0.623062 1.14155 0.138178 0.697299 1.16298 0.0370853 
0.595524 1.15223 0.0645675 0.582073 1.07525 0.145885 0.624288 1.05435 0.217058 
0.741998 1.13004 0.0835323 0.636744 1.1312 0.223646 0.661323 1.09043 0.167715 
0.603622 1.19368 0.26361 0.749916 1.20999 0.033559 0.792284 1.17921 0.101785 
0.690595 1.16807 0.106131 0.673572 1.19643 0.168628 0.677329 1.18569 0.261355 
0.721573 0.0828565 0.0341656 0.753372 0.120923 0.077197 0.718047 0.0493633 0.120084 
0.784056 0.0578331 0.127229 0.723591 0.0411373 0.262299 0.735784 0.10509 0.243898 
0.707652 0.241358 0.0350595 0.749877 0.180428 0.039197 0.768129 0.266092 0.0304559 
0.735881 0.178739 0.110637 0.727091 0.156162 0.17244 0.756054 0.16646 0.263424 
0.773674 0.229311 0.154668 0.769891 0.241626 0.262959 0.732006 0.208993 0.212731 
0.70356 0.390819 0.0363944 0.766095 0.327913 0.0314001 0.721398 0.333227 0.103344 
0.747449 0.250855 0.0926331 0.733953 0.417522 0.0924905 0.765054 0.373224 0.128109 
0.704355 0.387759 0.141614 0.748512 0.319044 0.262867 0.733161 0.280892 0.197329 
0.697121 0.420781 0.260496 0.725026 0.5112 0.0886162 0.750619 0.463151 0.0378083 
0.795815 0.482478 0.0866729 0.755041 0.467936 0.136674 0.791077 0.41844 0.171293 
0.676022 0.491611 0.26665 0.804571 0.511723 0.264179 0.772804 0.398375 0.260575 
0.741846 0.48056 0.245525 0.718064 0.547145 0.263651 0.670533 0.597449 0.0391165 
0.693231 0.663923 0.0315326 0.738207 0.531305 0.176582 0.761905 0.579388 0.122481 
0.678776 0.612405 0.267401 0.753436 0.584681 0.216383 0.743362 0.620616 0.267492 
0.673486 0.723647 0.0313728 0.747419 0.746585 0.111805 0.757645 0.690355 0.0386254 
0.728331 0.753825 0.0312099 0.747484 0.654129 0.0971223 0.740401 0.691658 0.26113 
0.689047 0.814472 0.208735 0.72764 0.69038 0.147438 0.751938 0.743777 0.178819 
0.682197 0.747823 0.269539 0.702196 0.932365 0.0399817 0.717933 0.850986 0.0346099 
0.681867 0.822746 0.0843485 0.694502 0.886015 0.0950444 0.740488 0.808576 0.159223 
0.738909 0.835613 0.260086 0.727022 0.766303 0.233157 0.681229 0.883852 0.265521 
0.712414 0.875835 0.208108 0.688108 0.948972 0.268914 0.71795 1.01803 0.0398211 
0.726128 1.06685 0.0891989 0.728717 0.949605 0.107476 0.689516 0.944241 0.205837 
0.672063 0.974447 0.138977 0.692436 0.916452 0.149887 0.73135 1.00698 0.154745 
[...]
POINT_DATA 1274
FIELD FieldData 10
VELOCITY 3 1274 double
0.0004599010301 -0.0012826446644 5.2721294573e-05 0.00014490192376 -0.0007082107234 -0.00023002911131 0.00054312954246 -0.0013344732195 -7.3965783759e-06 
0.00072775150382 -0.00041610408863 -0.0016333868966 0.00058675464588 -0.0009572774091 -5.9964576895e-05 0.00025683002806 -0.00048951691477 0.00032509028647 
0.0001387009076 -0.00040532127189 -0.00043270296259 -0.0001543164145 -0.00066539646399 -4.6163772166e-05 0.00037898957215 -0.00088602261386 -0.00031560963403 
0.00015290669863 -0.00063336338463 0.00038799103378 0.00034837322807 -0.00057603217213 0.00067930028863 0.00042865373515 -0.0011069485567 3.8487771775e-06 
0.00059293753642 -0.0014929771881 2.4371204848e-06 0.00056853868213 -0.0014544896657 0.00063137473142 0.00020318225218 -0.00066521442633 0.00010889612543 
0.00039042656199 -0.00080780749256 6.6130340454e-05 0.0003073194622 -0.00078191778939 9.6912842339e-05 0.00066842751903 -0.0015762598483 -2.3471463219e-06 
0.00078597012935 -0.001141500465 -0.00018417636572 0.00084809402664 -0.0006246518675 4.2213530839e-05 0.00046787601783 -0.0011183519912 0.00022987394956 
-0.00012637271748 -0.00087096113206 6.7531815104e-05 0.00020479614026 -0.00051125999134 -0.00020781344004 0.00025452456135 -0.00058371820716 -0.00018067859566 
0.00060262712244 -0.001477882076 -0.00077625763062 0.00035113353832 -0.00062460692349 0.00018860986926 0.00019741128261 -0.00052097239625 3.1615548267e-05 
0.00063133014628 -0.0015189966935 1.3933277452e-05 0.00052711105551 -0.001160370394 -0.0011553914567 0.00037226852363 -0.00087850514378 4.5453452781e-05 
5.5923135395e-05 -0.0016661218655 1.9676988765e-05 0.00023062609557 -0.0006689979788 7.1525816985e-07 0.00033343494487 -0.00081705374527 -0.00036381924082 
0.00038557260294 -0.0010931703744 -0.00032691523705 0.0009974394182 -0.001154580257 0.00043358189245 0.00031195606504 -0.00083859210002 -0.0001659371801 
0.00033342740328 -0.000817489698 -0.00031638669756 0.00034564277048 -0.00082758013041 -0.00031768206047 0.00010331577007 -0.00082482665004 -0.00014600325607 
0.00013795123994 -0.00035717933115 -1.0979618693e-06 0.00069867046539 -0.0014854313846 -0.0003906052033 0.00025941933345 -0.00077795242281 -0.00011586502594 
0.00033664312958 -0.00075333168909 -0.00024276361548 -6.7309216714e-05 -0.00050585597742 6.9516198521e-06 0.00036218740051 -0.00086625449476 -0.00036274039318 
0.00066964968223 -0.0013129355403 1.898429946e-05 0.00013795214451 -0.00035519951079 -0.00018086454577 0.0003298819912 -0.0008074613366 -0.00040152413503 
-5.8086254823e-05 0.00074603577096 4.9163554159e-05 -0.00073570657537 -0.00010934670546 -0.00051464557751 3.9880221738e-05 -0.00037998251374 0.00082777832741 
0.00018113390565 -0.00064455787985 0.00072217442705 0.00038658208676 -0.0022500504199 -0.0011508710906 0.00065520684824 -0.0016558615959 3.5888748595e-05 
0.00041401823612 -0.0008745725232 -7.995286908e-05 0.00051117838948 -0.0010906237031 -0.00022898012677 6.8306169497e-05 -0.00025962352452 -2.1569888829e-05 
0.00012660980227 0.00040743236967 -0.00074442826975 -0.00012835294507 -5.4037744508e-05 1.4151386988e-05 -0.0014382113269 -0.0014583450567 -0.0013751873757 
4.5179925546e-05 -0.00030201537705 -4.3244516496e-05 -0.00015943662504 -0.0010511406995 0.00027967424524 -0.00022281722222 -0.00064886157594 -3.9148523306e-05 
0.00016482375485 -0.00052894930404 0.0002551901708 -0.00030652368652 -0.0013052780676 0.00026363363525 3.7305000801e-05 -2.0673088948e-06 0.00032997352312 
7.2571290728e-05 -0.00062934890477 0.00049865725049 3.6345906408e-05 -0.00069397736336 -0.00043382183501 0.0002354211989 -0.0002919944713 0.0011645591574 
-0.00012703587905 -0.001149884836 0.00011260781499 0.00038296278937 -0.00077099250843 -0.00038518726344 0.00049403259838 -0.00098185915765 0.00014588654443 
-0.000112725749 -0.00038357976546 -0.00019723906921 0.0011545020709 -0.00065477155305 0.00039633521176 0.00023210467523 -0.00072565010055 -8.019742394e-05 
0.00038936968801 -0.001609309739 0.00058035203649 0.00043846558277 -0.00088355181631 6.9709344481e-05 0.00031114802316 -0.0010195396199 0.00026477952659 
0.00031140965895 -0.00090268837975 5.9762202172e-05 0.00011683869285 -0.00051498035686 -0.00013802990898 0.0003099331445 -0.00078485082554 -5.5933672181e-05 
0.00014288857593 -0.00059141901553 -0.00024486512199 0.00015552587156 -0.0011144151303 0.00046205651793 0.00032096742197 -0.0011820241608 8.9257004666e-05 
0.00022881041352 -0.00067614902032 1.5262509181e-05 0.00048749532917 -0.0013965430192 -0.0010806947897 8.5173875969e-05 -0.00095014105194 -0.00012177505438 
0.00010742862258 -0.001255359175 0.00061226432699 0.00078210731108 -0.001213262165 -0.00053942225755 3.1838917993e-05 -0.00083850568237 -7.96911314e-05 
0.00046441621736 -0.0010158256176 -0.00036380305031 -0.00048754545207 -0.0008802558796 9.3280495679e-05 0.00018928521653 -0.00096413705728 3.0547176631e-05 
0.00074225503444 -0.00051149561153 7.587839239e-05 0.00017632565383 -0.00097456542723 -2.2044455667e-05 0.00039012301691 -0.0010273601108 3.2043137124e-06 
0.00073281225565 -0.0009203313815 0.0002977735825 0.00083338010251 -0.0010834079881 0.0001967871765 0.00083281064507 -0.00056264564964 0.00023456310637 
-0.0001424912168 -0.00090915613484 0.00073345021544 0.00025422907572 -0.00068277851094 -0.00018728395571 0.00025849017316 -0.0012430270849 -1.4916686741e-05 
0.0010257257151 -0.001840860365 0.00018440040432 0.00055452629658 -0.0016742475888 4.7981084214e-06 0.00025654030723 -0.001362712307 -0.00018630361119 
-0.00056142590456 -0.00074945498804 -6.7385071314e-05 0.00018613439473 -0.00083677861272 -0.00020307893002 0.00023554677756 -0.00082084577531 -4.9514710597e-05 
0.00013864321863 -0.00082667232496 -5.1789879379e-05 0.00016564384898 -0.0007946058675 0.00037543286131 0.00022685610492 -0.0011501518648 0.0004269548356 
0.00090070058163 -0.0013886963968 -7.0723434261e-05 -0.00019835371834 -0.00067694009311 -0.00034943714549 0.00029270902906 -0.0010694821377 0.00058153233322 
-0.0002982348776 -0.00085742477509 -1.9788950203e-05 0.00065189431919 -0.001140487121 0.00024876099208 0.0004047769075 -0.00095538898979 -2.733465528e-05 
-0.00021397256455 -0.00082950035142 0.00020782124611 0.00040512509394 -0.00096742694186 1.1946139132e-05 0.00018405551844 -0.0011290811894 0.00026320559676 
-0.00024285347168 -0.00085598906181 -5.6468281815e-05 0.0002152006529 -0.00066870849621 -0.00035485358899 0.00024772738547 -0.0009435109404 0.0003050171557 
0.00081835120603 -0.00099324585817 -1.2125280178e-05 3.453614447e-05 -0.0012284554309 0.00034995311963 0.00019786908899 -0.00085065500496 -0.00056141801401 
-0.00016269134118 -0.00083723111831 8.194098815e-07 -0.00014185572522 -0.00099123254775 0.00010605805051 0.00052045932199 -0.00066638480682 0.0010891408933 
0.00035029648522 -0.00091600787173 -1.6263109397e-05 0.00040110511821 -0.0005838286529 -8.1201206704e-06 0.00020576913544 -0.00079071234718 -9.0873609258e-05 
0.00067695454362 -0.00082727027361 -1.6660577158e-06 8.8827220419e-06 -0.00083118537234 -0.00015022255921 0.00034837969637 -0.0012032802981 0.00016428328623 
0.0001400896644 -0.0020975106293 0.0007153382613 -0.00032821788721 0.00055493492005 0.00094385484472 -0.00021008601893 0.0012527229836 -0.00052129732614 
-8.9323188951e-05 -0.00022064586989 0.00035058754637 -0.00070889417838 -0.00071888080754 -0.00033241243353 -8.3696814818e-05 0.00038759176163 0.00054077967431 
2.8341555347e-05 0.0002325862575 0.00013457419369 -9.1563623168e-05 -0.00048675338741 0.00099448504446 -0.0022939619176 -0.0022143926528 0.00031415034211 
0.00061084493787 -1.8339694524e-05 -2.3720382046e-05 6.8916677073e-05 -0.00093379078192 4.5486273491e-05 0.00042451941283 -0.00095193233352 -6.2610850949e-05 
7.7868277372e-05 0.0010406738584 -0.00035298710772 0.00068285742144 6.9229659368e-05 0.0011155383696 0.00057082206625 -0.0010076157158 0.00054052818731 
0.00059474132959 -0.00074020588003 -1.2932455609e-05 0.00097489335777 -0.00049046010404 -0.00078581131938 -0.00047016940147 -0.00078746719324 0.00047827632255 
0.00038829201282 -0.00071741195647 -0.00065019602518 0.00064122295264 -0.00086296050326 0.0005178427703 -0.00016536546329 -0.00054563860492 0.00055229277205 
-0.00019625998364 -0.00039713237584 4.8348071121e-05 -8.8882191134e-05 -0.0011688394936 6.7185929896e-05 0.00034214661582 -0.0010620700108 -0.00054318430596 
0.00017188501357 -0.00059769240644 -4.8357488583e-05 0.00071312745019 -0.0013694825086 -4.8545056846e-06 0.00028676152966 -0.00088946490058 6.9227593805e-05 
0.00035403246327 -0.00072949431224 0.00081515935115 0.00082576900915 -0.00162505285 0.00031762091392 -8.7975192324e-05 -0.00077834207855 4.5541008094e-05 
-0.001348872012 0.00085504603638 4.5997177199e-05 3.2183938043e-05 -0.0009106027723 -0.00039177823585 0.00028812021598 -0.0011887369654 -2.1626322515e-05 
0.00019950924355 -0.0015292459184 0.00023991045193 -0.00059340990891 -0.0005028130118 -0.00014971936042 0.000221160909 -0.00077746984659 -1.7304957841e-05 
-0.00044141142974 0.00017404403309 -1.831397267e-05 -0.00017220417889 -0.00071181899242 0.00039379859962 0.00013233587745 -0.00057717670858 0.00036709156149 
9.8114586137e-05 -0.00091843013889 -0.00027934049466 0.00037852305849 -0.00096829158492 -2.7242078449e-05 0.00050475662899 -0.001509908081 0.00018032873463 
-0.00019932230886 -0.0011568504792 -5.759795792e-06 0.0001362039364 -0.00080787621305 4.7225348749e-05 0.0001385946591 -0.00084379419599 -1.0538959205e-05 
0.00034780994571 -0.00091077433704 0.00013424879758 -0.00010768784893 -0.00061171112083 -2.5563827344e-05 0.00052043326768 -0.0015284340965 -0.00075021851172 
0.00049437667443 -0.0011729483256 0.00058791984452 0.00047094219134 -0.0012076128407 -0.00082293530763 1.4186778651e-05 -0.00095265106409 0.00064514440058 
0.00069584577727 -0.00085887600678 0.00027335543556 0.00058352230343 -0.00046253930061 -0.00033444322975 0.00024849306526 -0.00097806792978 -3.3332738402e-05 
1.9946625377e-05 -0.00047089599332 0.00012579304687 5.4262377731e-05 -0.0011672243594 4.5253029434e-05 8.5741211412e-06 -0.00078325725335 -2.0946067906e-06 
0.00014841673676 -0.0011076321861 -1.7044250699e-05 0.00010713308935 -0.0016076108135 -1.3358702811e-05 6.7065280274e-05 -0.00097363642872 -0.00013072832288 
-0.00053714004451 -0.0007927247552 -0.00039230043013 -0.00025103010288 -0.00061582052511 7.4322228083e-06 -1.2385381074e-05 -0.00084421307785 0.00010041827076 
0.00036992997216 -0.00085065073411 8.0053595446e-05 0.00027872191728 -0.00082252152159 1.0804395949e-05 0.00026840722725 -0.00099941526129 8.7601134536e-06 
-0.00013893781692 -0.0014785017678 8.691867865e-05 -6.8208830421e-05 -0.00079111948112 1.728986831e-05 0.00036860435362 -0.0010179530122 6.4521986814e-05 
0.00010579551164 -0.00041004871634 -4.1648651826e-05 0.0003006207947 -0.0011491844633 -0.00037551992503 0.00026159905027 -0.00072441467737 0.00030693601684 
0.00014155835035 -0.00063369261703 -1.270986741e-05 0.00028459069395 -0.0013807553112 -0.00025872914791 0.00037462708919 -0.0012389983671 -0.00023833317613 
0.00039886451932 -0.00087405733289 0.00017168105271 0.00047108741756 -0.0010789998858 8.9162519376e-05 0.00043930204813 -0.00091953960921 -6.3193320954e-05 
0.0001655482496 -0.0013860673119 -5.7168405378e-07 -3.5290886913e-05 4.0770358499e-05 -0.00032942236066 5.1695312143e-05 -0.0001927532106 0.00062289247442 
2.7558264921e-05 -2.0148824042e-05 0.00056568827179 -1.8256288319e-06 8.984348038e-05 1.9529826436e-06 -0.00012510413177 0.00030921351903 0.0011451980524 
-0.00015908909392 -0.00028446682566 0.00013663146461 -0.00091495135595 -0.00016412988119 -0.00053827431601 -0.00047425276838 0.00080237478998 0.00055682877796 
0.00014249677211 -0.00051522062878 -0.00023151048974 -7.1652790763e-06 -0.00090711463246 -0.00050165936619 2.4819789311e-05 -8.8989563578e-05 0.00011026352497 
0.0026329184421 -8.248165748e-05 8.1645990364e-06 -0.0011003031719 -0.00078187178203 0.00061122281124 -0.00085301957626 -0.00077967009815 -0.00075557291997 
-0.002468421107 -0.0013309127925 -0.00033658114223 0.00059141523569 -0.00068147289788 0.00050757344308 -0.00066191856485 8.7501079963e-05 -0.00083130837273 
0.00061686316718 -0.0017352640358 -0.00038686431702 0.00081299465187 0.00039313091963 0.00021373176102 0.00037890482232 -1.6708507715e-05 0.00025908790512 
0.00042947013099 -3.0385818857e-05 0.00012326746964 0.00049245374881 -0.00080841750427 0.0001476773937 -0.0017328208144 -0.00078567180394 -7.4734421382e-05 
0.0005387070288 -0.0002544678305 0.00055792597052 -7.7745967879e-06 0.00017710290829 2.8010072897e-05 0.00023010768073 -0.0015128939083 -5.8514702673e-05 
0.00020310730205 -0.0010019584822 -1.7640416105e-05 0.0010986267322 -0.0012377382199 1.6965367116e-06 0.00033753485511 -0.00087985471301 0.00018751968442 
0.00026683482962 -0.00090452648078 0.00031712757212 0.00090329012956 -0.00029018560399 0.0012803132204 -0.00058202487015 -0.0013873696037 0.00016029961708 
0.00039549846603 -0.0012574408123 0.00015659814689 -0.00010032839405 -0.0015121985832 0.00054157209268 1.0705059891e-05 -0.0025063835163 -0.00056888967426 
-9.2159847514e-05 -0.00096787607485 4.6667426885e-05 -7.5664463926e-05 -0.0007959555999 0.00027341314737 0.00045908099095 -0.0014351766095 -0.00019520124059 
-7.231884561e-05 -0.0015223169306 0.00031704798479 0.00050920236855 -0.00090678553968 0.00032105149028 0.00039929318392 -0.0010171545728 3.5070261301e-06 
-9.9375896227e-06 -0.0010814221917 0.0001580282069 -0.00080905216764 -0.00098631909902 -0.00098444940372 -0.00012383289067 -0.00038164253532 4.3662800095e-05 
0.00051278785729 -0.0023322183835 0.00028948493218 0.00019073820748 -0.0013924183207 -0.00028973417221 0.0007611286632 -0.0011215296275 1.5658633718e-05 
-0.00024154434918 -0.00071885591828 0.00060667358865 0.00020796486222 -0.0013749261886 -6.9200288989e-06 -3.3164807461e-05 -0.00088638796266 6.0538088002e-05 
0.00094301513646 -0.00071723447621 0.00015240624627 0.00046279670609 -0.00076867575402 -0.00025765292626 0.00029657751265 -0.001395969845 -0.00034673890388 
-5.7550971611e-05 -0.00097508963471 -8.2833790173e-05 0.00037867303995 -0.0010528939449 2.1924439627e-05 0.0010436021166 -0.0010436454411 4.0778047813e-06 
-5.0066154842e-05 -0.001303557599 -1.2198276883e-05 0.00032885747472 -0.0016336302536 -0.001812463054 -0.00038492941437 -0.00066937804738 -0.00032434136739 
0.00049598210502 -0.00057255446521 9.8424887618e-06 0.00010112820309 -0.0013022867661 -0.00073743423219 0.00021033003948 -0.0013612444573 -3.9667394409e-05 
2.9253850114e-05 -0.00096364348953 -0.00017078690473 0.0010304506658 -0.0013017578512 -7.2417201504e-05 0.00052563740139 -0.00055394927117 -5.612169822e-05 
0.00034812334732 -0.00095870024806 3.791337085e-05 0.00023069704709 -0.00091984587074 0.00017871638433 6.5315274968e-05 -0.0012321437806 -0.00032682116221 
-2.0288952813e-05 -0.0011630645393 -0.00037090447347 0.00020936377952 -0.0011366387409 -2.3690239434e-05 0.00036556095614 -0.0013147918949 -2.4265483531e-05 
9.4949508606e-05 -0.00090434497463 -4.5606227485e-05 -0.00016876680187 -0.001279893888 -0.00035473184138 7.4118961663e-05 -0.00086396062807 0.00012297590426 
0.00050458632024 -0.0008453242056 0.00022083085527 0.00047049987035 -0.00095714208284 0.00014029841284 0.00015593578083 -0.0010459196634 6.7786366587e-05 
0.00013722172497 -0.00071729885985 1.4917570354e-07 0.00042478348053 -0.0014443582248 2.011972929e-05 0.00061823339761 -0.0012025087293 0.00079401156401 
0.00074910427995 -0.00069789130423 -9.6363553631e-06 0.00052512779395 -0.0010149842721 8.769129961e-05 6.3096945033e-05 -0.00092711981267 0.00052641081063 
0.00040424337335 0.00035969030877 -2.6865183344e-05 0.00024178989349 -0.00047472085025 0.00072064515797 4.2635214942e-05 0.0001791605969 0.0011484039011 
-0.00068597849345 -0.0014546745395 0.0014321859054 2.0653214674e-05 -9.8618465508e-06 0.00017388913769 0.0006511019842 0.00059697954819 0.00062112743077 
0.00029988747323 -0.0001354017357 0.0012686462197 -0.00084594208725 -0.0010357808378 -0.00042652978114 0.00017898120441 0.0011426966829 -0.00097698591016 
-6.4674964804e-05 2.1344901659e-05 0.00092926463537 -0.00061601522866 0.00014321926977 -0.00078625523581 -0.00055406443414 -0.00069442356524 0.00014681201261 
-0.00045745138079 -0.00074069263792 -6.4700461866e-05 0.00023020044754 -0.00091346296852 0.0003027576781 0.00043541863801 -0.00023526876604 7.6292229698e-05 
0.00046064114102 -0.00030894315676 0.00019527911159 0.00060735033692 -0.00096232462214 0.00084352884357 0.00053636937091 5.6039536108e-05 -0.00019242344429 
-0.00016304166564 -0.00050344420166 -0.00022433033109 0.00048387810055 -0.00039050586384 -4.6303557584e-05 0.00085818703065 0.00013498696354 0.00034182412858 
0.00023532686708 0.00013667514968 0.00043286179422 0.00049732948067 -0.00086037365146 -0.00022774477103 -0.00026230034801 -0.00038644797616 0.0006919090972 
-0.00017025176275 0.00059706019131 -8.57587683e-05 -0.0010947476534 -0.0016851188618 0.0011527445461 -0.00096845886619 -0.00073631083762 -3.9502072255e-05 
-0.0016264932596 -0.00042458461113 -0.00041728547085 5.5560299919e-05 -0.00093748892502 0.0013338563173 0.00042382985798 -0.00038456893252 0.00066837920848 
0.0012772410056 -0.00096956217857 -3.727292842e-05 -5.5958704099e-05 -0.00045816844589 0.00018173925683 -0.00066866172275 -0.0013217858319 -0.00010460816169 
0.00063083091403 -0.00026652595785 -0.00055739340727 -0.00083318563773 -0.00076068902879 8.6480020712e-06 0.00096233066464 -0.00065881303345 -0.00016841841467 
-0.00024536787168 -0.0008030319608 0.00045073810031 0.00064107003318 -0.00097439307283 0.00047573655734 4.7120997048e-06 -0.00041697627672 0.00068624196155 
-0.00027262375603 -0.00072126894929 2.1423237087e-05 0.00017068880579 -0.00035425341694 -5.6562913744e-05 -0.00023721858873 -0.00068967580687 0.00014873107429 
-5.6727303352e-05 -0.0007654701438 -6.7904633154e-05 -0.00089761934107 -0.00120892258 -0.00058032193043 -0.00023660326333 -0.00076935587819 -0.00073012424485 
1.1588531681e-05 -0.00098018734078 -2.9321641505e-05 -0.00061063397994 -0.00072275081673 -0.0002714252673 0.00044004595275 -0.00078487142206 7.2649804235e-05 
0.00036903703132 -0.001012476241 -0.00037013752796 -0.00013411113718 -0.00099419165764 7.2288564126e-05 -3.0752047699e-05 -0.00046793284344 9.1183257289e-05 
0.00048840582623 -0.0010992216824 -1.2345019802e-05 9.9158271483e-05 -0.00068260324833 2.0424945812e-05 0.00032178223911 -0.0010806564627 0.00024658431968 
-0.0003436222651 -0.00064543798754 -0.00060952717302 0.00046021913552 -0.0011941836527 -9.4657604011e-05 0.00016429218745 -0.00076647572059 -7.9251094941e-06 
0.00025469301735 -0.0012432699375 -1.1559554344e-06 0.0055108403306 -0.0057813291681 0.0037632891086 0.00025855749245 -0.0011320674186 2.6722538222e-05 
-0.00028308942928 -0.001094057787 0.00037176404711 0.00015643295349 -0.001249255236 3.152049248e-06 0.00015936979955 -0.0011392215509 3.5214756801e-05 
0.00040208505738 -0.00091628703452 -0.00049737876292 0.00035141166998 -0.0011307094806 8.9379757782e-05 -0.00020956325774 -0.0012879249612 -0.00010698708028 
1.0769564996e-06 -0.00054585904859 -0.00024915147854 -0.00038695316277 -0.0011717926848 7.4256577043e-05 0.00047308287189 -0.0013088307704 -0.00031011753806 
0.00034739709823 -0.00092482782035 1.1697410073e-05 0.00016839301558 -0.0011840443833 6.2642034622e-05 8.1859005715e-05 -0.0012918926006 -0.00014386809886 
0.00026990485352 -0.00094219623243 0.00017110982159 0.00061889521684 -0.001106120124 -1.7115068961e-05 0.00024428457379 -0.0012079162322 -0.00013055224993 
0.00031542867103 -0.0014386641862 1.9525234282e-05 0.00070331076418 -0.00067227482437 -0.00010441912713 5.3926674123e-06 -0.0014255058089 -0.0003711331208 
-0.00011297433216 -0.0012028110734 1.5777945928e-05 0.00026387712635 -0.0011979469721 -0.00013540880332 0.00054870326657 -0.0010148783727 0.00028467149328 
0.00014625351598 -0.0012217805906 1.327149931e-05 4.6027745111e-05 -0.00073957222507 0.00010844827941 2.72881255e-05 -0.0010553095353 -1.2142495402e-05 