# vtk DataFile Version 4.1
vtk output
ASCII
DATASET UNSTRUCTURED_GRID
POINTS 1274 float
0.512375 0.555333 0.0379513 0.469248 0.651846 0.105412 0.487404 0.599148 0.268458 
0.494489 0.588179 0.0993465 0.423342 0.756755 0.0323145 0.424164 0.769159 0.119239 
0.475286 0.638102 0.213024 0.45964 0.671071 0.26865 0.393391 0.846412 0.0592077 
0.398109 0.813473 0.16433 0.445432 0.700498 0.215157 0.432281 0.740096 0.265757 
0.362398 0.903858 0.0319701 0.343202 0.969541 0.0516596 0.380958 0.879303 0.146373 
0.394423 0.845328 0.231941 0.344909 0.958615 0.260026 0.313463 1.04043 0.0387191 
0.389825 0.914952 0.0867262 0.447151 0.899803 0.110178 0.331785 0.99729 0.129851 
0.408643 0.916049 0.218425 0.310076 1.03856 0.265121 0.351685 0.930277 0.187793 
0.281027 1.10326 0.0483811 0.3277 0.988483 0.200536 0.286261 1.10907 0.260298 
0.257205 1.16377 0.0336644 0.356558 1.11686 0.104834 0.301515 1.0698 0.109524 
0.28964 1.25335 0.0382188 0.30255 1.04615 0.200311 0.283213 1.10135 0.172532 
0.332765 1.25662 0.0928404 0.384108 1.15903 0.0372999 0.275241 1.14921 0.11046 
0.421058 1.15098 0.106615 0.260363 1.15134 0.208703 0.339874 1.10788 0.211408 
0.218461 1.25669 0.0332147 0.319339 1.18733 0.0545283 0.319408 1.15766 0.17374 
0.244403 1.19985 0.164705 0.287524 1.18378 0.26484 0.23874 1.22293 0.0938834 
0.371259 1.23296 0.0356631 0.236329 1.23076 0.23654 0.215375 1.2575 0.149821 
0.541558 0.470094 0.030208 0.611568 0.295568 0.0943351 0.595399 0.359075 0.121032 
0.596775 0.347936 0.197235 0.575972 0.38918 0.266499 0.609894 0.314872 0.261678 
0.540535 0.470401 0.209871 0.508396 0.558624 0.219315 0.603321 0.329076 0.0358989 
0.566621 0.417652 0.159367 0.483437 0.625424 0.0389348 0.609858 0.476397 0.048066 
0.545804 0.475415 0.0985122 0.549413 0.448516 0.268474 0.565034 0.572667 0.262775 
0.527246 0.512868 0.159533 0.550399 0.669563 0.0308588 0.44514 0.712077 0.0783871 
0.517376 0.698427 0.106149 0.47108 0.754428 0.178147 0.550848 0.548585 0.100863 
0.523237 0.659546 0.266703 0.446055 0.697645 0.146309 0.414487 0.778698 0.214322 
0.500878 0.681944 0.17042 0.554038 0.577935 0.168547 0.493845 0.78146 0.0918852 
0.535002 0.761688 0.146206 0.458114 0.815843 0.0363746 0.508267 0.725515 0.0397544 
0.484115 0.818857 0.150686 0.43632 0.836541 0.113225 0.364103 0.89525 0.269731 
0.499043 0.770302 0.260787 0.538515 0.618473 0.219219 0.563054 0.748643 0.220244 
0.467519 0.816641 0.213526 0.5063 0.707176 0.226929 0.459807 0.890522 0.0401605 
0.520394 0.855001 0.0356087 0.53532 0.792256 0.0326226 0.454014 0.876805 0.177752 
0.494672 0.85119 0.0955301 0.465232 0.871096 0.260664 0.43844 0.804964 0.26901 
0.416544 0.952686 0.0373621 0.373387 1.09067 0.0325885 0.46562 1.00563 0.0331279 
0.400068 0.997949 0.0947275 0.415035 0.949167 0.150518 0.467683 0.965092 0.0911813 
0.485372 0.942065 0.2618 0.419527 0.9735 0.26148 0.534912 0.984585 0.2689 
0.459389 0.953492 0.203033 0.383534 1.02551 0.0323972 0.365308 1.05603 0.0850916 
0.463448 1.03304 0.0903734 0.362541 1.06398 0.158439 0.395182 1.00557 0.196877 
0.441465 1.05187 0.264239 0.376873 1.02998 0.267487 0.483294 1.00469 0.236035 
0.456231 1.13738 0.0385402 0.470419 1.08401 0.123205 0.427061 1.043 0.13885 
0.361078 1.09131 0.269156 0.525702 1.17987 0.17583 0.489922 1.10351 0.26778 
0.40786 1.08913 0.213187 0.429579 1.13442 0.264219 0.445336 1.12142 0.16677 
0.359011 1.16143 0.260112 0.510616 1.18793 0.0383154 0.498303 1.14774 0.119076 
0.436161 1.20716 0.0341935 0.369327 1.20281 0.101211 0.381065 1.13423 0.166493 
0.338937 1.23777 0.260951 0.453187 1.16866 0.207662 0.402253 1.20747 0.220939 
0.4693 1.19162 0.266121 0.487009 1.2559 0.0362705 0.312299 1.2133 0.137387 
0.460012 1.24996 0.226123 0.300242 1.2138 0.204074 0.473931 1.21333 0.169769 
0.372759 1.23036 0.163511 0.639612 0.231456 0.179194 0.564181 0.412656 0.0315454 
0.660001 0.193025 0.0562154 0.661456 0.287284 0.212861 0.64007 0.241353 0.26351 
0.668998 0.174315 0.206919 0.642799 0.223298 0.115369 0.631657 0.406742 0.0363484 
0.592352 0.423551 0.0895118 0.526874 0.510158 0.265843 0.605123 0.487637 0.262747 
0.617388 0.291082 0.159122 0.639083 0.377649 0.245815 0.613608 0.460551 0.136777 
0.58741 0.547253 0.0375183 0.66035 0.42391 0.10178 0.53389 0.636803 0.132081 
0.604237 0.529034 0.146604 0.575316 0.525205 0.21166 0.592379 0.433881 0.220567 
0.613333 0.624505 0.266298 0.603595 0.718824 0.0390312 0.555267 0.610833 0.064772 
0.569124 0.734869 0.09854 0.566259 0.698683 0.157479 0.599797 0.710679 0.268228 
0.591049 0.634951 0.174308 0.643586 0.641433 0.210972 0.57207 0.67255 0.224481 
0.596754 0.759409 0.159874 0.586842 0.666663 0.0960305 0.639344 0.78823 0.039031 
0.561443 0.797617 0.0908808 0.541772 0.814604 0.18987 0.545159 0.832435 0.261833 
0.615963 0.775151 0.265251 0.515768 0.873593 0.210774 0.625247 0.70952 0.200862 
0.600473 0.822181 0.221548 0.584855 0.837847 0.0353347 0.56072 0.861212 0.0930581 
0.565803 0.910273 0.0397009 0.503738 0.9443 0.0315432 0.551991 0.909853 0.260437 
0.598113 0.967513 0.265549 0.528331 0.86325 0.1465 0.505611 0.924179 0.172501 
0.535096 1.00395 0.0511136 0.522528 0.916947 0.106329 0.473497 1.05965 0.189289 
0.46837 0.996 0.154838 0.537248 0.989097 0.138076 0.518029 1.04721 0.269178 
0.570747 0.945019 0.192333 0.436388 1.0669 0.0347797 0.538869 1.12485 0.0335711 
0.573029 1.06522 0.0351734 0.504001 1.0657 0.0328709 0.552222 1.10803 0.0954891 
0.522947 1.05049 0.104547 0.543023 1.00889 0.209221 0.502974 1.1259 0.205076 
0.538346 1.23437 0.0891411 0.573997 1.21181 0.0322876 0.563522 1.17717 0.123162 
0.522964 1.09185 0.152521 0.604649 1.08754 0.268671 0.53982 1.23837 0.159199 
0.533989 1.21227 0.237826 0.566351 1.13065 0.180434 0.557297 1.07343 0.214605 
0.553669 1.13734 0.259467 0.639596 1.20765 0.043049 0.621766 1.21002 0.110432 
0.464572 1.21526 0.100684 0.647472 1.23628 0.221507 0.595268 1.19923 0.186331 
0.773188 1.16838 0.205914 0.678989 0.130869 0.0403703 0.693164 0.119858 0.113029 
0.721564 0.0322032 0.192822 0.682027 0.134221 0.265518 0.697845 0.094493 0.181651 
0.636893 0.26247 0.0387336 0.695476 0.315576 0.0396728 0.702391 0.225338 0.150166 
0.704305 0.266634 0.267353 0.640257 0.406383 0.174394 0.695175 0.199937 0.267445 
0.678484 0.327336 0.266694 0.662809 0.336289 0.137782 0.680177 0.458457 0.0419373 
0.658891 0.495086 0.0970772 0.652116 0.357112 0.0776911 0.685808 0.467 0.158198 
0.649451 0.461906 0.216917 0.681617 0.278495 0.104436 0.728849 0.41209 0.19723 
0.690636 0.353731 0.201211 0.611606 0.645158 0.0351632 0.661729 0.525307 0.034934 
0.6353 0.5582 0.0889957 0.595293 0.599906 0.12002 0.647898 0.60749 0.156663 
0.66378 0.683848 0.262135 0.637948 0.546511 0.269081 0.686924 0.582566 0.207215 
0.616855 0.578706 0.208746 0.672793 0.547157 0.15009 0.677444 0.516405 0.206206 
0.628677 0.715393 0.1226 0.658194 0.65492 0.0915449 0.697131 0.572737 0.0973978 
0.708455 0.627441 0.138868 0.717279 0.647392 0.206789 0.660862 0.823468 0.268702 
0.665088 0.672134 0.159566 0.624086 0.802746 0.116816 0.647542 0.876722 0.0391006 
0.689553 0.761471 0.0795034 0.708139 0.702621 0.0851179 0.680177 0.762953 0.149028 
0.637072 0.775753 0.203072 0.696799 0.715832 0.204885 0.61334 0.868624 0.265677 
0.582885 0.872225 0.18194 0.614928 0.969456 0.0372509 0.668639 0.984861 0.0764546 
0.630045 0.868879 0.106214 0.643742 0.927188 0.0886462 0.586848 0.908255 0.125749 
0.60998 0.967447 0.139011 0.634516 0.984752 0.209759 0.67702 0.849288 0.147919 
0.635758 0.9227 0.233715 0.643493 0.865451 0.207762 0.632832 0.916522 0.169101 
0.630501 1.10754 0.030065 0.641966 1.04003 0.0399773 0.694427 1.09242 0.0358786 
0.574598 0.956838 0.0909269 0.594208 1.02114 0.0955626 0.667553 1.04249 0.115762 
0.578013 1.03066 0.260461 0.61383 1.02546 0.161769 0.671951 1.03141 0.184188 
0.616552 1.0898 0.0911298 0.622278 1.14348 0.138555 0.696799 1.16534 0.0370847 
0.595706 1.15389 0.064588 0.582384 1.07808 0.146704 0.62394 1.05605 0.217077 
0.741211 1.13206 0.0835675 0.636099 1.13288 0.223603 0.661109 1.0925 0.167578 
0.603616 1.1957 0.263609 0.74919 1.2126 0.033559 0.790783 1.18224 0.101007 
0.689452 1.16956 0.106123 0.672883 1.19864 0.168414 0.677261 1.18735 0.260702 
0.721977 0.0830971 0.034164 0.753795 0.121918 0.0764995 0.718001 0.0494712 0.118149 
0.783929 0.0580536 0.125828 0.7234 0.0416028 0.26252 0.735182 0.105242 0.242815 
0.707704 0.241998 0.0350585 0.751078 0.18189 0.0391964 0.768565 0.265769 0.0304536 
0.736798 0.178249 0.110511 0.727907 0.156535 0.172605 0.75598 0.167234 0.26341 
0.774087 0.230186 0.15544 0.769672 0.243241 0.262079 0.731547 0.209604 0.212702 
0.703021 0.391205 0.0363958 0.765062 0.327527 0.0314088 0.720318 0.333455 0.103377 
0.747293 0.251972 0.0926934 0.732651 0.418706 0.0925146 0.764548 0.374006 0.126907 
0.703671 0.387239 0.140939 0.747911 0.320204 0.263464 0.734581 0.281576 0.197871 
0.697049 0.420205 0.260496 0.726561 0.513409 0.0866183 0.752462 0.463487 0.0378114 
0.797165 0.484574 0.0864169 0.75474 0.468936 0.134684 0.789954 0.419476 0.170191 
0.674879 0.493948 0.266641 0.804078 0.511579 0.26417 0.77359 0.400935 0.260577 
0.740724 0.481026 0.246676 0.718325 0.54839 0.263651 0.669542 0.598835 0.0391254 
0.694399 0.664534 0.0315319 0.737134 0.533165 0.175349 0.761274 0.581339 0.121525 
0.678757 0.613765 0.2674 0.752634 0.585197 0.216795 0.743354 0.621923 0.267491 
0.673532 0.723866 0.0326579 0.748001 0.74846 0.111829 0.758353 0.692108 0.0384582 
0.727884 0.754883 0.031209 0.748524 0.655927 0.0970463 0.740111 0.693437 0.261124 
0.687869 0.816922 0.208822 0.726809 0.692208 0.146558 0.751448 0.745042 0.178655 
0.694098 0.744639 0.269539 0.702098 0.933969 0.0399815 0.717358 0.853229 0.0346111 
0.681514 0.824923 0.084473 0.694156 0.888151 0.0954537 0.739469 0.809854 0.159454 
0.738422 0.838533 0.260086 0.733626 0.775763 0.229324 0.681306 0.885894 0.265523 
0.712849 0.877616 0.206794 0.688033 0.95103 0.26891 0.717684 1.02049 0.0398203 
0.725583 1.06885 0.089692 0.727459 0.952564 0.107562 0.689408 0.947349 0.205757 
0.672067 0.975647 0.138775 0.693196 0.918101 0.150603 0.73055 1.0092 0.155389 
[...]
POINT_DATA 1274
FIELD FieldData 10
VELOCITY 3 1274 double
0.00053040461744 -0.00084507828623 -0.00030602779686 2.0855727425e-05 -0.00085284953215 -0.00052319601321 0.00022147818305 -0.00054620980219 6.7514784737e-06 
0.00033780764753 -0.0019160055215 0.0018457758935 0.00031458486456 -0.00090280770244 -0.00020626864884 0.00045122391302 -0.00065163325615 0.00025067895696 
0.00010388765344 -0.00047918527795 -0.00021449603105 -0.00065920594992 -0.00097854814101 -8.4467477254e-05 0.00046046757004 -0.0010936309915 -0.00040814766257 
0.00020750818318 -0.00073845568631 0.00039147846459 0.00048351163184 -0.0007576271087 -0.00025067956857 0.00043083938326 -0.0011595553579 -5.1793288128e-06 
0.00038479164834 -0.00095627798289 -1.9019289956e-05 0.00046657517261 -0.0010581412445 6.7636205014e-05 0.0002742890301 -0.00070022604459 4.9556886373e-06 
0.00042627859862 -0.00096687557321 0.00013769294238 0.0003818811406 -0.00092943057307 8.0755813869e-06 0.00042494130674 -0.0010475038706 2.8460065572e-05 
0.001030997735 -0.0014530141194 -0.00024925077538 0.00061107853951 -0.00063882892406 0.00013314723968 0.00038277425556 -0.000878320598 3.7318495361e-06 
-1.2786748721e-05 -0.0008599532201 -2.4334348894e-06 0.0002056063527 -0.00052462886393 0.00021164837661 0.00023399637993 -0.00057419120859 -0.00021416780959 
0.00043499190146 -0.0010545206408 4.9773177325e-05 0.00023231339523 -0.00063323588767 0.00019362652211 0.00019263216517 -0.00052886755338 -2.9975139106e-05 
0.0003453436338 -0.00084454691987 -1.1232763644e-05 0.00061805610958 -0.0011680023316 -0.00057116881051 0.00027205637745 -0.0007409317959 -0.0004335264936 
0.00018567988735 -0.0012623549619 1.9002948142e-05 0.00026263640079 -0.00062949517774 -3.314062124e-05 0.00027951747776 -0.00071038297721 -0.00014375814296 
0.00053953145648 -0.0011362695428 -0.00024947379012 0.0007502620425 -0.0011062166675 0.00029851576226 0.00030353852933 -0.00072318109283 -0.00012002533357 
0.00048420367283 -0.0011366012825 -6.0854946221e-05 0.00032714368037 -0.00068435616816 -0.00017869277571 0.00012588650426 -0.0007163175411 -8.2912101906e-05 
0.00024582539343 -0.00058889710157 1.1342054262e-05 0.00058819341985 -0.0011481034184 -0.0003017796761 9.501832662e-05 -0.00067316818915 -5.6705645405e-05 
0.00028115245645 -0.000726156487 -0.0002183585254 3.5964268465e-05 -0.00054526001624 -1.6618559173e-05 0.00029238147932 -0.00070699348646 -9.643762048e-05 
0.00064011447615 -0.0011259091342 -1.1695431438e-05 0.00018816455142 -0.00044289734665 -6.183344939e-05 0.00028924459385 -0.0007015799388 -8.1898663085e-05 
-0.0001958325379 0.00073141521519 -2.2816100475e-05 0.0013441761191 -0.00038190128583 0.00061439692939 -0.00041911083684 -0.00035191876907 0.00052743491071 
0.00050850047875 -0.00069745818837 0.0006450960666 4.5969745312e-05 -0.0019644446718 -0.00079826609168 0.00018185284472 -0.00061232312919 0.00039524298692 
2.8076746655e-05 -0.00028103228264 0.00066152491833 0.00019567854264 -0.00037519438819 -0.00013562850584 0.00010681507889 -0.00019897337754 1.6358413633e-05 
0.00030643381291 -0.00050505782984 5.6328806679e-05 0.00056309894432 -0.0010991274409 -0.000885299441 9.39441515e-06 -0.00086773130655 -6.2217604352e-06 
-0.00030540075077 -0.00083559590295 0.00038143556389 0.00061669702268 -0.00039494945455 2.8245097107e-05 -0.00014771630101 -0.0010191349488 8.192923322e-05 
0.00010652493042 -0.00039744032507 -1.3000405139e-05 0.00070819244268 -0.00048943833199 -7.5792041939e-05 0.0001403172977 -0.00020915011063 0.00040774647005 
0.00038348737347 -0.00079606920342 0.00055552668933 0.00050766529119 -0.00083807717166 -1.2057418765e-05 0.00066189791314 -0.00050140522534 -0.00025136292214 
-0.00084500159285 -0.0011166341597 -6.2043838011e-05 0.00024499393505 -0.00041437248629 -0.00038173168826 0.00032449442584 -0.00092857669374 3.31538397e-05 
5.2919638196e-05 -0.00094583562564 -0.00059268926266 0.0002811597571 -0.0005899570449 -2.8337730934e-05 0.00015611193051 -0.00078646573185 -0.0001381014567 
0.00076792404451 -0.0017424379143 0.00078875404259 0.00066254869554 -0.0010171578385 4.4605698888e-06 0.00042251859322 -0.0010607225908 0.00012500020246 
0.0005401783334 -0.00086729214639 6.936969521e-05 -0.00025416490737 -0.00051439184697 -6.0770437092e-05 0.00039306349274 -0.00093821191772 1.6089160243e-05 
0.00024274507773 -0.00074051274204 -0.00042036185512 0.00076690550916 -0.00031904337128 -0.00027319749564 0.00052104684422 -0.0011946052768 -2.5548951583e-05 
-7.6247641878e-05 -0.0006086919202 -0.0003655837857 0.00041375714534 -0.00081118477783 -0.00024748804725 0.00012552975547 -0.0010505117438 0.00034387630915 
-2.9802398469e-05 -0.0011290733263 -0.00097751599848 0.00019828857893 -0.0010970616206 1.4839955453e-05 -0.00035092200169 -0.0010490142358 -1.6485907754e-05 
0.00042466169993 -0.0010025630669 -0.0001282402968 -0.0004288767 -0.00095866293841 1.5844636589e-05 0.00043053823552 -0.001067435123 2.3310428728e-05 
0.00049313306743 -0.00076049896213 -0.00015447445956 0.00020867484237 -0.0010514143141 2.8408243467e-05 0.00015154673746 -0.00092442977633 -2.7843703742e-05 
0.00022652940185 -0.0011636794663 0.00038073867221 0.00074223755249 -0.00084330288022 0.00039436891325 0.00077555383309 -0.00058368099995 -5.8076932312e-05 
-0.00022748055302 -0.0010748398577 0.00074759300175 -0.00027064717966 -0.00091845490106 0.00015506187097 3.6986353799e-05 -0.0010618273119 1.9740504928e-06 
0.00069476605199 -0.0014898653791 0.00030123090789 0.0003338941521 -0.00098637768318 5.6536941999e-05 0.00015532503567 -0.0012930720978 -0.00016988073852 
-8.7577848085e-05 -0.00064387768389 -0.00015042091726 0.00021731341534 -0.00075013224038 -2.8564962487e-05 0.00031701337661 -0.00064914699323 -6.3552119659e-05 
0.0002976555171 -0.0004145921797 3.4957036208e-05 0.00028082510075 -0.00049334433324 -0.00030462275591 -0.00048983090749 -0.0011342339483 0.00046974088337 
0.00086346895932 -0.0010161685139 5.1313446184e-05 -6.168784167e-05 -0.00077151076142 -1.2612691009e-06 0.0001557834896 -0.00090883166753 0.00031314515658 
-0.0001499556118 -0.00063290013866 1.8491029995e-05 0.0012996969787 -0.0015043702209 -0.0011398507358 -0.00025732668264 -0.0011478966601 -2.4077477449e-05 
-0.00016978869114 -0.00067125926455 0.00018146146844 8.5742275582e-05 -0.00051948793403 -4.1689509586e-05 7.136034852e-05 -0.00098243141103 0.00023833768106 
2.6160301181e-05 -0.00061015580276 4.3389701585e-05 0.00073432759424 -0.00095079613829 0.00030998324868 0.00037982567418 -0.00084453000367 0.00097475936679 
0.00069924629256 -0.0010222470595 1.3627257168e-05 0.00051087412943 -0.0011437387405 -0.00026216145337 0.00011289015005 -0.00066899335877 -5.4255593461e-05 
2.4941872784e-05 -0.00061632065271 -9.0964750889e-06 0.00031067470155 -0.00089756222046 8.0120946431e-05 0.00040478005319 -0.00077761565592 0.00021821573856 
-0.00011690850287 -0.00041374347809 -5.4456338808e-05 0.00066809082208 -0.0010027544373 -1.3466008119e-05 0.00045168979634 -0.00089552691258 -4.9093415955e-05 
0.00053027763886 -0.00085884335366 -0.0006207877746 0.00018697711628 -0.00066965083125 -5.1722706493e-05 0.0011360858579 -0.0015021868335 -4.9270463148e-05 
0.00061239190052 -0.0013914655327 -0.00011288278987 -0.00025511008118 3.2958987946e-05 -8.8816056546e-05 -5.0352349328e-05 0.00029483637882 -5.20488304e-05 
-0.00011113695568 -0.0001553693445 0.00048792035317 9.2426035349e-05 -0.0003137452643 0.00020254013247 0.00012040819217 0.00030849627345 0.00069183327125 
7.9791162558e-05 0.00062972020599 0.00068615184474 8.7323911258e-06 3.6369803597e-05 0.00059987612515 -0.0018306464922 -0.0015185561217 0.00010375851233 
0.00076087536477 -8.8179868162e-05 0.00011636704636 1.690790883e-05 -0.0002040287281 1.2871362641e-05 0.00072431602284 -0.001129563208 -7.5243442211e-05 
-0.00076238558965 0.00071889807954 0.0005287608822 0.00040615880156 5.0146229217e-05 0.0015197464635 -0.00068075339216 -0.00049694605045 -0.00081563549416 
0.00049702588869 -0.00069509563175 -5.8837445742e-05 0.00060318133272 -0.0001363559942 -0.00016397918656 0.00066077265959 -0.00084321761745 -0.00061146400769 
0.00065675161058 -0.00077857853184 0.00094674370701 0.00063178116636 -0.00079727478857 -0.00017148556575 0.00062614485868 -0.0004240892273 7.4985537754e-05 
0.00025252657329 -0.0011360821423 1.5260555226e-05 0.00015843797343 -0.0015063498987 -4.0219435318e-05 -0.00016785867403 -0.00046007834516 0.00019827049945 
0.00024560362457 -0.00026126547683 -0.00044963704787 0.0004840227183 -0.0010953864288 0.00022298216502 -2.6752339656e-05 -0.0006520914231 0.00011453830711 
0.00088525951144 -0.00093420329844 0.000192660505 0.00061746457012 -0.0011093596144 6.8780757356e-05 0.00011707209467 -0.0010661987771 0.00049935963646 
-0.0010274778071 0.00030569642155 0.00014846625654 0.0001615763836 -0.00070596932296 -7.0816517779e-05 -0.00015344828839 -0.00078446356936 -5.604135904e-05 
0.0002411884394 -0.00090924920223 0.00021659091697 -0.00070168191891 -0.00064498598412 -0.00016606725174 0.00053406093866 -0.00081378610542 0.00027372840504 
-0.00038163011348 -6.6676125448e-05 4.2299621146e-05 -0.00037765428079 -0.00088969925114 0.00019805797271 6.3438751937e-05 -0.00097960522226 0.00056341022819 
-4.0030468847e-05 -0.001391978027 -5.4788101313e-05 8.6267327454e-05 -0.00052074866794 -0.00038565659234 -1.005050087e-05 -0.001820683846 -4.15902743e-05 
0.00041821455419 -0.001746555343 5.2335474088e-05 0.00055988863354 -0.0013781013002 8.187350813e-05 -0.00011739098676 -0.00066212519069 4.5062164032e-05 
4.3510098031e-05 -0.0008118213042 -0.00010216602836 -2.7737928835e-05 -0.00065750946835 0.00010131292621 -0.00013138484455 -0.0013418174416 -0.00098558091333 
0.0004367697074 -0.0013430409322 -0.00013171477314 0.00015388234382 -0.001434500957 -0.00091642387004 -1.3627043421e-05 -0.00090313272082 0.00048438773428 
0.00044525150622 -0.00063877347894 0.00018994469147 0.00031636731164 -0.0010052543404 -0.000832304138 3.3281517735e-05 -0.0010334587444 -5.2677851229e-05 
-0.00057532347183 -0.00075622990115 -0.00025798442774 0.00029919769521 -0.00081386435119 -5.7351496085e-05 -4.6499977133e-05 -0.0012876287056 -5.6148654973e-06 
0.00010277737126 -0.0011982207505 2.2165292482e-05 0.00023069392738 -0.0014519135431 4.2819634188e-06 1.3994539356e-05 -0.00074130396019 -1.2200287587e-05 
-6.4679365036e-05 -0.00081937074598 -0.00045007385803 -0.00046301304334 -0.00084470556848 -0.00025764085535 0.00041674151114 -0.00087938280892 -0.00061606608273 
0.00068944038438 -0.00099914948577 0.00037866694961 0.00048464492034 -0.00034667929483 2.2221619748e-05 0.00067251950658 -0.0013726919636 -0.00020337955273 
-0.00010253601535 -0.0014193013896 0.00025234279669 0.00019888579709 -0.00088826354664 1.1178799821e-05 0.00073681671967 -0.00092853647109 0.00035234381669 
9.3576065719e-05 -0.0018308589945 -0.00073058382366 0.0011534900164 -0.0015662937845 -0.00052727456051 -0.0007165443474 -0.00082572222295 0.00033462385383 
-0.00018325298057 -0.0012507935811 -3.4549546027e-05 0.00052634672218 -0.00054603799169 -0.00023448823986 0.00045369889615 -0.00095155731644 -0.00019272066706 
0.00064706535574 -0.0011566094041 5.3290648833e-05 0.00029655850572 -0.0011598096433 8.9680648565e-05 0.00068052447263 -0.0013742955551 -0.00014937765782 
0.00015114766485 -0.0013173663896 5.6409537177e-06 -5.5664935518e-06 6.5778542508e-05 -6.4354317039e-05 -0.00022598703562 0.00025932909221 0.00033414803613 
-5.9708760322e-05 5.1559207719e-05 0.00026938968264 0.0001517071348 -0.001253932586 -0.00010397166877 -0.00020822522431 0.00063905671821 0.00041527963716 
-0.0010259560906 -0.00044094168265 -0.00015520595949 0.00021247167442 -8.816472194e-05 -0.00036092631451 -0.00050714759237 0.00037025472841 0.00051312969715 
0.00025656074172 -0.00042989276835 -0.00041072397855 -0.00012732069003 -0.00047796265511 -0.000449321059 -0.00013243060085 -0.00060508634374 -0.00021837620157 
0.0017668153888 0.00040098884289 0.00032775335371 -0.00010960103198 -0.00061791835305 0.00043262684209 -0.00050193748638 -0.00079651081794 -0.00058512732774 
-0.00053111338813 -0.00065531566335 -5.5126762758e-05 0.00087164913537 -0.00036065192628 0.00043614842868 2.858781243e-05 -0.00062190438299 -0.00038184898394 
0.00069495850581 -0.00085936466257 8.8272363328e-05 0.0002585362986 8.5654887401e-05 9.7778907707e-05 0.00092165295675 -0.00027511625363 0.0013390128145 
0.00016780082371 0.00023670606508 0.00014577652698 0.00050494078716 -0.00095640282637 0.00026455455787 0.0003311867862 -0.00058919112064 2.3206303815e-05 
0.00016242169395 -0.00069933211669 0.00044187460981 0.00034147763004 -0.00080445552902 -0.00044478851948 0.00016053415466 -0.0013988497424 0.00042692834572 
0.00016409852383 -0.000972579292 1.3813273708e-05 0.00053492170582 -0.0011123918581 4.6131876341e-06 0.00052286014408 -0.00094601546804 0.00028179271495 
0.0005044087569 -0.00076838996308 0.00051595112667 0.00086151711684 -0.00046669751163 -0.00014345174466 0.00076774606114 -0.00079749082389 0.00021936316278 
0.00069239659538 -0.001364846512 0.00018257875593 0.00015864342872 -0.0014696332167 0.00073049067703 0.00078115845857 -0.001328456309 -0.00067191111302 
0.00022392997174 -0.0012408301996 0.00064275743034 -0.00028312091516 -0.00056038383817 -0.00029573832962 0.00072351399078 -0.0010340847902 -0.00010582027666 
0.00073299001294 -0.00079461105112 0.00068211333616 0.00060334606164 -0.0011358639656 1.5730952198e-06 0.00040576980819 -0.0012465152792 -4.5186137458e-05 
-0.00019438507334 -0.001526245164 -8.2800948143e-06 0.00046279057088 -0.0017759429033 0.00096501262711 -0.00010939580464 -0.00043904920652 -0.00015216617999 
0.00065173162953 -0.0014562319413 0.00013387754154 0.00011845412182 -0.00052673569039 0.00046645973181 -0.00018039043269 -0.0014469810853 -1.0262436609e-05 
-0.00011061953774 -0.0010446586328 0.00061838005887 0.00045527839523 -0.0017184753587 -1.5296731905e-05 4.0721819928e-05 -0.0013104256109 0.00025914393174 
0.00074535070109 -0.00087445213819 3.0317005603e-05 0.00054013769943 -0.00089974626538 -0.00023907121401 -1.4742453992e-05 -0.0014861287896 -0.00037909943106 
6.7373107238e-05 -0.0014688480905 5.1178863756e-05 0.00052366398417 -0.0011680213229 0.00014641922573 0.00085849431078 -0.0014303282133 1.0163379182e-05 
-0.00046239392904 -0.0013133235823 -8.1805028918e-05 -0.0001251611541 -0.0018818838831 7.0833111831e-05 -0.00052323960446 -0.0010982178132 3.6386643295e-05 
0.00016252451063 -0.00073647947571 4.3926159328e-05 -3.3297393581e-06 -0.0014985671357 -0.0004423965253 -0.00016058832821 -0.001284554952 -1.7986159367e-05 
0.00082525764075 -0.0012718134154 -0.00050987333755 0.00036066487636 -0.0013781423672 -4.6071808823e-06 -0.00014339873669 -0.0010361174578 -0.00022941804333 
8.0156704155e-05 -0.00079859144368 6.6698929271e-05 0.00041072928612 -0.0014747542598 2.7071396101e-05 0.00056671513767 -0.0012088223124 -0.00029541081867 
-4.3593663268e-05 -0.0010816102165 -0.00018743360478 0.00087084526477 -0.0010747062919 -0.00037742908158 -3.6891649102e-06 -0.0012665173314 1.5433064422e-05 
-0.0003311868727 -0.0010334889724 0.00026422237221 -0.00033692097097 -0.0020717325317 -0.00057488386387 -0.00047046959855 -0.0011303646031 -4.8678560641e-05 
-8.3690267435e-06 -0.0011533425507 1.1705536674e-06 4.9195602546e-05 -0.00089135066421 -0.00010050076024 9.0846481354e-05 -0.0013984528021 0.00019579454237 
-9.2597922685e-05 -0.0013487322248 -3.7842709113e-05 -9.7969154938e-05 -0.0011385931678 -2.1884864758e-05 0.00064418310258 -0.0018428125274 0.00020723557945 
0.00016973486045 -0.00099493131787 -8.2147051239e-06 0.00071847108798 -0.00092107195427 0.00012536096769 -8.125298303e-06 -0.0010437437394 0.00043517794528 
0.00021315258601 0.00031427232921 4.0191324832e-05 -8.127251738e-05 -0.00039989514877 5.6920653411e-05 -0.00027154062504 0.00083517779305 0.00031197390026 
-0.0012206264817 -0.001394140909 0.00067012525771 0.00011868903813 -0.00030601466412 -2.0383591717e-05 0.00095117431374 0.00071989652772 0.00052921127233 
2.9462511219e-05 0.00026184519855 0.0016964267012 -0.00069613497413 -0.0006931202378 -0.00041394042874 0.00022870544838 0.0010449621656 -0.001133237458 
-0.0001301267263 0.00054439366229 0.00071477369931 -0.0016040384223 1.4848762304e-05 -0.001200717097 0.00038312701444 0.00010061563072 2.1292296408e-05 
-0.00023326153818 -0.00057407557968 -0.00053355547645 0.00011181333364 -0.00098871470566 0.00053036428841 0.0016512833982 -0.00045159568637 -0.00036741238916 
0.00037550255614 3.6842905321e-05 1.0716689992e-05 0.00044729004222 -1.3720761233e-05 0.00051854584577 0.00037633319796 3.4388668475e-05 0.00010914171033 
-4.963204993e-05 -0.00060403858928 -0.00020294789232 0.00080079437882 -0.000563194246 6.2451380121e-05 8.5673467348e-05 -0.00013079281364 0.00059412298415 
-0.00017065653339 -0.00060947044243 -0.00016315639611 0.00024756668179 -0.00047486201056 6.3228981781e-05 -0.00076575315887 -0.00030363900207 -0.00039670054037 
0.00016874285846 0.00031978315811 -0.00031805528665 -0.00012259431891 -0.0008049520692 0.0009343315567 -0.00052258346637 -0.00032356189663 8.8952656936e-05 
-0.00030982609859 -0.0010018374601 5.4322406739e-05 0.00082718467809 -0.00019069931769 0.00095649494372 0.00062868643152 -0.00032437566311 0.00080282644337 
0.00066930319109 -0.0016905997037 3.9636957526e-05 0.0003447710992 -0.00062311241532 0.00023148954829 -9.7212075091e-05 -0.0019367871245 0.00013950340469 
0.00042807775398 1.720676314e-05 -0.00064144099484 0.00027719876197 -0.00061808991788 2.1990415917e-05 4.6713239398e-05 -0.00075140499195 3.6117765945e-05 
-0.00019747670592 -0.00044525986504 9.9842320621e-05 0.00056761906329 -0.0010900823567 0.00058727062397 0.0004102202264 -0.00043641102178 0.00097636004037 
8.8331344041e-05 -0.00072289441222 -9.6845453803e-07 0.00060932346784 -0.00027130478178 -0.00063959237365 0.00016017782255 -0.0010458099082 6.9271659476e-06 
0.00013580565712 -3.7854263184e-06 -0.00086768871475 0.00071591323221 -0.0012521981543 0.00083396683484 -0.0004007933716 -0.00094038485133 -3.3994524373e-05 
-6.5611914402e-05 0.0011810124359 -1.2741321934e-05 0.00017158369339 -0.00085675430725 0.00045100012783 0.00020247559672 -0.00086067727754 8.4077031198e-06 
0.00058930581795 -0.001386952168 6.9935089579e-05 0.00052661985104 -0.001459841852 0.00072836198862 -0.00020805788816 -0.00092239921246 0.0003598010213 
0.00025271024734 -0.00094653920707 6.5229607029e-06 0.00027028554985 -0.0010122055295 5.9153986474e-06 0.0005678983504 -0.0014546291962 8.5825977983e-05 
0.00027823175662 -0.0012845331539 -0.0004655461114 0.00013543969089 -0.0016139866864 -0.00045446800884 0.00092328720991 -0.0010155342242 -7.9779257024e-05 
-0.00056746868079 -0.0015002181722 -2.6063829693e-06 -0.00049678409471 -0.0020253959119 0.0011261904182 -0.00044032375335 -0.00059592646739 0.00015081476722 
-0.0005415149536 -0.00091965862725 0.00031911316125 0.00025465949572 -0.00081274911735 -2.9684297313e-06 5.7671319129e-05 -0.0012225859153 -4.8385815436e-06 
0.00020859396661 -0.0013411869972 5.800611865e-05 0.00080343665245 -0.0020246022037 4.381374732e-05 -0.00022301918742 -0.0021190693998 3.8512800024e-05 
-0.00010853199637 -0.00094111522793 0.00044313496375 -0.00055853373706 -0.0012674705912 -0.00039453729044 0.000477814528 -0.0014031984014 -0.00041302211628 
7.4625421882e-05 -0.00084534908369 -7.4100690562e-06 0.00014590109641 -0.0014283326925 -3.1262759207e-05 -8.577891544e-05 -0.0012619824797 1.8417982931e-05 
-0.0001413943141 -0.00087079247565 0.00013286706865 -0.00025534273405 -0.001368236833 -1.978397183e-05 0.00033437186628 -0.0012309760898 9.2015550977e-05 
-0.00016817488019 -0.0018625294675 -2.7635798145e-05 0.001462610807 -0.0011883177265 0.0003713022891 -0.00037347673104 -0.002138140153 -0.00019359712818 
0.00010880603815 -0.0016731236001 9.7906887274e-06 0.00030508369648 -0.0013369942871 4.2576113912e-05 0.00046080825114 -0.0011109079204 0.00018147304645 
-1.5235707225e-05 -0.0012920153381 3.1519907451e-05 0.0003158949399 -0.00099276356019 -1.275878815e-05 2.4436283902e-05 -0.0010583952321 -2.3547010737e-05 