# vtk DataFile Version 4.1
vtk output
ASCII
DATASET UNSTRUCTURED_GRID
POINTS 1274 float
0.511977 0.556298 0.0379518 0.46895 0.652577 0.10542 0.487192 0.599661 0.268458 
0.494192 0.588906 0.0995057 0.422983 0.757623 0.032314 0.423953 0.769669 0.119046 
0.475096 0.638563 0.213084 0.459869 0.671836 0.268647 0.392932 0.847528 0.0595183 
0.397857 0.814085 0.164013 0.445099 0.701307 0.215326 0.43187 0.741091 0.265758 
0.361989 0.904853 0.0319704 0.342756 0.97063 0.0513199 0.380677 0.879984 0.14634 
0.394053 0.846225 0.232025 0.344518 0.959562 0.260017 0.312994 1.04157 0.0387203 
0.388936 0.916156 0.0869217 0.446609 0.900401 0.110263 0.331395 0.998239 0.129656 
0.408647 0.916854 0.218423 0.309864 1.03907 0.265122 0.35148 0.930772 0.188041 
0.280548 1.10443 0.0482031 0.327459 0.989066 0.200303 0.28605 1.10958 0.260298 
0.25685 1.16464 0.0336641 0.355945 1.11798 0.105534 0.301228 1.07049 0.10974 
0.289479 1.25455 0.0382188 0.302309 1.04673 0.200323 0.282933 1.10203 0.17276 
0.3322 1.25779 0.0931593 0.383399 1.16011 0.0369484 0.274953 1.14991 0.110641 
0.420473 1.15208 0.106673 0.260075 1.15204 0.208896 0.339805 1.10874 0.211557 
0.218269 1.25715 0.0332144 0.318804 1.18843 0.0547913 0.319205 1.15843 0.17385 
0.244117 1.20055 0.164891 0.287622 1.18429 0.26484 0.238454 1.22362 0.0940403 
0.370656 1.23403 0.0356631 0.236166 1.23116 0.236829 0.215091 1.25819 0.149982 
0.540872 0.471176 0.0302099 0.611326 0.296162 0.0940686 0.595105 0.359788 0.120451 
0.596689 0.348154 0.196573 0.57581 0.389581 0.266496 0.609607 0.315561 0.261297 
0.540231 0.471147 0.210023 0.50821 0.559071 0.21938 0.603217 0.32933 0.0358989 
0.566386 0.418225 0.159054 0.483041 0.626388 0.0390766 0.61029 0.477499 0.0479156 
0.545606 0.47589 0.09853 0.54925 0.448913 0.268474 0.564765 0.573634 0.262774 
0.527021 0.513417 0.159498 0.549724 0.670087 0.0308565 0.444895 0.712671 0.0780622 
0.517298 0.698939 0.105584 0.470673 0.755178 0.178171 0.55039 0.54908 0.100669 
0.523477 0.660364 0.266704 0.445843 0.698162 0.146599 0.414105 0.779628 0.214266 
0.500695 0.682721 0.170814 0.553664 0.578548 0.168509 0.493542 0.782508 0.0916997 
0.534517 0.762592 0.146105 0.457497 0.81686 0.0363739 0.508144 0.726441 0.0397529 
0.483841 0.81958 0.150706 0.435831 0.837138 0.113462 0.363712 0.896199 0.269731 
0.498697 0.77115 0.260787 0.538496 0.61941 0.219031 0.562749 0.749392 0.220363 
0.467528 0.817372 0.213615 0.50592 0.708069 0.227291 0.4598 0.891515 0.0402954 
0.520526 0.856223 0.0357958 0.534802 0.793339 0.0326221 0.454228 0.877735 0.177866 
0.494084 0.852216 0.0958016 0.465996 0.871928 0.260664 0.438207 0.805939 0.269013 
0.416062 0.95334 0.0373629 0.373255 1.09164 0.0325886 0.46515 1.00632 0.033129 
0.399612 0.999021 0.0944127 0.414349 0.950065 0.150115 0.46701 0.96569 0.0911256 
0.485572 0.943061 0.261124 0.41963 0.974283 0.261481 0.534827 0.98562 0.2689 
0.458599 0.955316 0.202971 0.382988 1.02679 0.0323973 0.365164 1.05738 0.0853309 
0.46326 1.03367 0.0904156 0.362285 1.0647 0.158619 0.394938 1.00623 0.196948 
0.441281 1.0524 0.264238 0.37667 1.03055 0.267351 0.483493 1.0058 0.235638 
0.455484 1.13836 0.0385398 0.470042 1.08481 0.123025 0.42674 1.04377 0.138764 
0.361253 1.09197 0.269156 0.524508 1.18135 0.176583 0.490384 1.10478 0.267882 
0.407997 1.0898 0.213071 0.429679 1.13497 0.26422 0.445136 1.12244 0.166633 
0.359153 1.16208 0.260112 0.509888 1.18889 0.0380851 0.49738 1.14887 0.12109 
0.435537 1.20818 0.0341933 0.36882 1.204 0.101414 0.380816 1.135 0.166245 
0.339018 1.2384 0.260951 0.452791 1.16961 0.207642 0.401862 1.20848 0.220776 
0.469524 1.19208 0.266121 0.486394 1.2569 0.0362705 0.3119 1.21411 0.137437 
0.459694 1.25077 0.226764 0.300085 1.2146 0.204167 0.472757 1.21471 0.169837 
0.372163 1.23178 0.163618 0.639641 0.231388 0.178577 0.564497 0.41189 0.0315353 
0.659964 0.193111 0.0554221 0.661312 0.287557 0.212663 0.639853 0.241877 0.26351 
0.668937 0.174466 0.206854 0.642894 0.223055 0.114778 0.63211 0.407827 0.0363386 
0.592678 0.42453 0.0894361 0.526711 0.510554 0.265844 0.604383 0.48885 0.262795 
0.617379 0.291103 0.158795 0.638742 0.377871 0.245371 0.613778 0.461036 0.137152 
0.587 0.548105 0.0375183 0.660498 0.424501 0.102019 0.533519 0.637566 0.132284 
0.603674 0.529479 0.146507 0.574616 0.526213 0.211534 0.591884 0.434264 0.220417 
0.613215 0.62533 0.266298 0.603489 0.719896 0.0390329 0.555102 0.611524 0.064966 
0.568661 0.735998 0.0983207 0.565879 0.699663 0.157167 0.599697 0.711478 0.268228 
0.590314 0.635814 0.174068 0.642766 0.6428 0.210762 0.572131 0.673436 0.224304 
0.596239 0.760442 0.159923 0.586504 0.66735 0.0962119 0.639692 0.789068 0.0390296 
0.56122 0.798325 0.0907787 0.541859 0.815383 0.189838 0.544942 0.833187 0.26183 
0.615717 0.775985 0.265249 0.516339 0.874757 0.210231 0.624982 0.710656 0.200354 
0.600386 0.823567 0.221567 0.584826 0.838331 0.0362613 0.560626 0.863102 0.0933695 
0.565288 0.91203 0.0397002 0.503079 0.945795 0.0315425 0.552069 0.910578 0.260439 
0.597987 0.968399 0.265549 0.52796 0.864085 0.146673 0.505426 0.925651 0.173729 
0.534654 1.00536 0.0510135 0.522377 0.918575 0.107548 0.473519 1.06066 0.18881 
0.467667 0.996891 0.154685 0.536779 0.990064 0.138886 0.51796 1.04822 0.269179 
0.571292 0.946294 0.192756 0.436199 1.06773 0.0347795 0.539912 1.12662 0.0335714 
0.573007 1.06639 0.0351733 0.503821 1.06727 0.0328709 0.55209 1.10864 0.0954066 
0.522622 1.05127 0.104965 0.543544 1.01017 0.209581 0.502582 1.12685 0.205547 
0.537787 1.23513 0.0890031 0.573521 1.21235 0.0322874 0.56273 1.17819 0.123629 
0.523183 1.09303 0.15247 0.6043 1.08851 0.268672 0.539232 1.23944 0.159043 
0.534014 1.21396 0.238299 0.565528 1.13239 0.180591 0.558378 1.07463 0.214304 
0.553936 1.13889 0.259189 0.639064 1.20819 0.0433931 0.621041 1.21085 0.110714 
0.46394 1.21639 0.100673 0.645561 1.23815 0.223451 0.594913 1.20078 0.186388 
0.757782 1.18783 0.207914 0.679054 0.130705 0.0407646 0.693433 0.119215 0.112568 
0.721562 0.0321995 0.193004 0.681933 0.134444 0.265516 0.698145 0.0937737 0.181162 
0.636806 0.262732 0.0387347 0.694634 0.315756 0.0396724 0.702684 0.225262 0.149219 
0.704098 0.267125 0.267353 0.640366 0.406874 0.174815 0.694774 0.200218 0.267451 
0.678202 0.327791 0.266704 0.662329 0.336979 0.137906 0.680608 0.459491 0.0425301 
0.659112 0.495671 0.0972938 0.652405 0.358288 0.0778633 0.685852 0.467508 0.158463 
0.648744 0.462726 0.216746 0.680799 0.279028 0.104646 0.730821 0.433514 0.199541 
0.690682 0.353959 0.201216 0.611129 0.646192 0.0351645 0.662292 0.526312 0.0349398 
0.635018 0.558555 0.0889778 0.595179 0.60033 0.120121 0.647804 0.608825 0.156536 
0.663667 0.684614 0.262136 0.637764 0.547416 0.269081 0.686714 0.583215 0.207124 
0.616636 0.579309 0.208132 0.672063 0.548244 0.14986 0.677113 0.517069 0.206245 
0.628139 0.716443 0.122609 0.657953 0.656512 0.0910559 0.696822 0.573344 0.0971268 
0.708201 0.628687 0.138109 0.71711 0.648022 0.207023 0.660672 0.824248 0.268702 
0.664697 0.673034 0.15926 0.623839 0.803506 0.11676 0.647067 0.877997 0.0390987 
0.690097 0.763053 0.079744 0.707901 0.704177 0.0844056 0.67995 0.763912 0.149171 
0.636636 0.776902 0.203005 0.696558 0.716428 0.204719 0.61364 0.869914 0.265678 
0.582659 0.873428 0.181791 0.61469 0.970981 0.0372507 0.668627 0.985959 0.0763074 
0.628886 0.86968 0.105967 0.643122 0.928052 0.0890483 0.586912 0.909972 0.126276 
0.609883 0.968684 0.138953 0.633956 0.985713 0.209502 0.675829 0.850755 0.148013 
0.636003 0.923824 0.23382 0.64377 0.867309 0.206568 0.633367 0.918086 0.169151 
0.630519 1.10839 0.0300652 0.642 1.04144 0.0403734 0.694546 1.09371 0.0358784 
0.573911 0.958234 0.0912763 0.593745 1.0225 0.0955108 0.667365 1.04343 0.115848 
0.577894 1.03154 0.260379 0.613373 1.02671 0.161722 0.67144 1.03254 0.184324 
0.616597 1.091 0.0912346 0.621419 1.1444 0.139065 0.696781 1.16663 0.037085 
0.595839 1.1557 0.0661628 0.58282 1.08001 0.147196 0.623735 1.05699 0.217151 
0.741315 1.13319 0.0833384 0.636073 1.13376 0.223738 0.660962 1.09363 0.167481 
0.603795 1.1973 0.263609 0.7491 1.21397 0.0335593 0.791872 1.1843 0.101055 
0.689467 1.17041 0.106152 0.67249 1.19945 0.168347 0.677376 1.18859 0.260184 
0.72227 0.0832004 0.034163 0.754231 0.122052 0.0763642 0.718284 0.048792 0.117099 
0.784031 0.0584705 0.125068 0.723097 0.0423424 0.26252 0.734794 0.105694 0.241859 
0.707745 0.242332 0.0350578 0.750936 0.182081 0.0391989 0.768635 0.266018 0.0304516 
0.737295 0.177467 0.110589 0.728157 0.156807 0.17301 0.755547 0.167456 0.2634 
0.7742 0.230487 0.156183 0.769662 0.244278 0.26219 0.730683 0.210388 0.212501 
0.70299 0.3913 0.0363958 0.76429 0.327706 0.0320039 0.720432 0.333308 0.103087 
0.746615 0.252781 0.0930944 0.732283 0.419172 0.0925081 0.764483 0.374294 0.126381 
0.703613 0.387158 0.140757 0.747637 0.320747 0.263464 0.734677 0.282511 0.198636 
0.697046 0.419803 0.260499 0.726522 0.51427 0.0857101 0.752907 0.463729 0.0378094 
0.797381 0.485903 0.086131 0.754354 0.469509 0.133705 0.789453 0.420168 0.169488 
0.674197 0.494507 0.266635 0.803855 0.511426 0.264174 0.774004 0.40228 0.260577 
0.740169 0.48117 0.247372 0.717897 0.548747 0.263651 0.669122 0.599941 0.0391269 
0.694848 0.665311 0.0315335 0.736518 0.534314 0.174854 0.760966 0.582401 0.121091 
0.67858 0.614242 0.2674 0.752355 0.585461 0.217262 0.743121 0.622835 0.267491 
0.673496 0.724467 0.0330583 0.747626 0.749779 0.111308 0.758665 0.693207 0.0384575 
0.727913 0.755346 0.0312094 0.748989 0.65715 0.0969754 0.739827 0.694396 0.261128 
0.687391 0.818135 0.208648 0.726204 0.693539 0.145917 0.750991 0.74569 0.178098 
0.693736 0.745528 0.269539 0.701985 0.934897 0.0399807 0.716827 0.854523 0.0346142 
0.681167 0.826308 0.084664 0.693912 0.889491 0.0957707 0.739235 0.810791 0.159749 
0.739047 0.840026 0.260086 0.73424 0.777786 0.228272 0.681299 0.886614 0.265523 
0.713229 0.878463 0.206444 0.687681 0.951785 0.26891 0.717674 1.02174 0.0398207 
0.725214 1.07013 0.0897207 0.72672 0.954553 0.107493 0.689517 0.94929 0.205712 
0.672018 0.97649 0.138593 0.693848 0.919318 0.150991 0.729864 1.01083 0.155823 
[...]
POINT_DATA 1274
FIELD FieldData 10
VELOCITY 3 1274 double
0.00036973592997 -0.00063424603724 -0.00027939699548 2.9025478785e-05 -0.00067571355514 0.00019781998868 0.00016391460912 -0.00041923217522 -7.1038101981e-06 
-0.00013188911702 -0.0013095896087 0.0015547039117 0.00029621723438 -0.00090975728136 -0.00017077229315 0.00017276813424 -0.00051306765779 0.00035485587582 
0.00026176742632 -0.00040790103112 0.00061772128768 -0.00054406767576 -0.00063836618137 6.4853714019e-05 0.000375330169 -0.0009209073771 -0.00025845130441 
0.00034315787641 -0.00033069164307 0.00038229715554 0.00040607332191 -0.00090248717729 -0.00027197966563 0.00040751587485 -0.00089767196759 -0.00017256564128 
0.00034045343339 -0.0008156550306 6.2637164712e-07 0.00070804226265 -0.0016139987756 0.0008589396575 0.00023640531441 -0.00051207161497 -0.00019508052504 
0.00019173188696 -0.00059166915742 -0.00048683423322 0.00032714919343 -0.00081562010662 0.00027388033528 0.00064534062785 -0.0017350640135 4.7369228757e-05 
0.00082610518299 -0.00095936917536 -0.00029228043237 0.00013305569401 -0.00060900655019 -0.00043834997228 0.00059466537982 -0.0013921083811 0.00060705282623 
-4.1701065376e-05 -0.00053036449451 -0.00043710717749 2.4277207676e-05 -2.8166693698e-05 -0.00029109265217 6.6643036901e-05 -0.000166152142 -0.00050433859959 
0.0007439066476 -0.0017626905348 0.00052105405957 0.00013095909646 -0.00045677618019 0.00050079455278 4.5774026676e-05 -0.00011451526721 3.6170801914e-05 
0.00084155366359 -0.0019053566987 -3.8748521838e-05 0.00073840838098 -0.0014192053173 -0.0018555803466 0.00022718574465 -0.00062197044312 -0.00017099236093 
0.00014352236048 -0.002006373197 -1.1885449696e-05 0.00021979013434 -0.00043460964969 -5.0051174348e-05 0.0002518152469 -0.00063351193562 -0.00044842653026 
0.0007825468079 -0.0015166958138 -0.00059468320949 0.0012843033201 -0.0016978081399 0.00036327496243 0.00025740517009 -0.00063967726441 -0.00035819178946 
0.00077001752586 -0.0014440914836 -0.00040353567472 0.00026507019499 -0.00054859667009 -0.00045277084409 -0.00028110093455 -0.0012275469561 -0.00033002601881 
0.00013593981772 -0.00036370802525 1.4838106769e-05 0.00091238110965 -0.0018183254382 -0.00055572209679 -5.0049977848e-05 -0.00086488238699 -8.6614970029e-05 
0.00022216713296 -0.00058844730275 -0.0004622014543 -5.6130026763e-05 -0.00013715839835 1.2582912771e-05 0.00022596643361 -0.00067385066998 -0.00020656570408 
0.00084341568184 -0.0014271360064 3.7988652155e-05 0.00011519002454 -0.00026020770319 -0.00038884902185 0.00022315662246 -0.00052914682693 -0.00021114616136 
-0.0041901253557 0.0034364062996 -8.1182889423e-06 3.3812254283e-05 -0.00073130381577 0.0001203683417 0.00066191541359 -0.00077202900775 0.00042287739469 
-0.00027032037239 0.00021214693175 0.00056851504191 0.00019137401461 0.00083699602893 0.00089683245276 0.00032858062816 -0.0010685468564 -0.00011917735052 
0.00027545878458 -0.00068482731352 0.000313509901 0.0002233809239 -0.00034883532926 -0.00012094889423 0.00017493437624 -0.00040722066504 -8.1894889183e-06 
0.00026324051215 -0.00071510353261 0.0006354547744 0.00037374337596 -0.00090419825631 0.00041050680895 -0.00052531334285 -0.0011661028295 0.00044028635942 
0.00032556561375 -0.00046300635068 0.00017510056101 0.00035542355124 -0.00058217712588 -0.00042979707846 7.527114275e-05 -0.0014526214784 4.6537859599e-05 
0.00032001380172 -0.0005596229377 -8.6403205732e-05 0.00073983061625 -0.0001213680512 -0.00017874824568 0.00020617407371 -0.00053936778084 0.0003122517064 
3.1345543153e-05 -0.00041215618668 0.00054053293693 0.00085518544554 -0.00074647437145 0.00042206013333 0.00068356601841 -0.0004751295413 -0.0010376452506 
-0.0001814275208 -0.00079186713907 5.8847320761e-05 0.00023293209774 -0.00027020384424 -0.00018558899129 4.6218311346e-05 -0.00081982175684 0.00014335753585 
6.2350030614e-05 -0.0014080484407 -0.0003335563755 -0.00058983915045 -0.00040524701889 -0.00094988985128 0.00025455716106 -0.00090187178719 0.00014223214126 
0.00014498410438 -0.00052967497852 -0.0003674149487 0.00053262378482 -0.00092960739211 -6.4348549332e-05 0.00030047025362 -0.00062915317718 5.3219218581e-05 
9.4011955256e-05 -0.00019739670298 2.5513627614e-05 0.00072661746305 -0.00066939668577 -0.00051884890225 0.00038027572048 -0.00084048784231 5.847608451e-06 
0.00013771041867 -0.00019189932827 -2.057628927e-06 0.00040564924815 -0.00082219030496 0.00023021187335 0.00020055098299 -0.0010212118823 -7.7963514106e-05 
-0.0020015646435 -0.00014152002775 -0.00078148664779 0.00027229771309 -0.001011720674 0.00022931480414 0.00021872916214 -0.00094153238087 -2.0590260141e-06 
0.00019543391225 -0.0010252327537 -0.00059448960795 0.00071909941363 -0.00088832743293 0.00011160787835 8.0415817684e-05 -0.00036898146533 -0.0003367628714 
-2.2649952957e-05 -0.00069787853997 -0.0015914134133 -0.0021241242321 -0.00072579203976 2.1380888527e-05 -0.00019885830841 -0.00050037460952 0.00014638477862 
0.00093853036408 -0.00045108003731 -3.8334332508e-05 0.00014994015541 -0.0014030280241 -1.3284285044e-05 0.00088115410619 -0.00079354726103 -0.00011912056964 
0.00070531746288 -0.00124790377 0.00027952508394 0.0011138709671 -0.00099348655916 0.00075573098007 0.0010945251004 -0.00067671623497 0.00026645296572 
-0.0008591583711 -0.0010609950845 0.00033495388693 -0.00072590892409 -0.0010825926588 0.00025687890061 -0.0002685638593 -0.0010934557672 1.5532228408e-05 
0.0019513722763 -0.0035946467362 -0.001538562472 0.0016081341729 -0.0025374514527 -5.2241183781e-06 -3.5220154357e-05 -0.0019080708842 -0.0003189907107 
0.00027511026381 -0.00065129270786 -0.00035682888992 0.00027847807393 -0.00079505365456 -0.00056505950145 0.00015238266795 -0.00067649188783 -0.00020377902317 
9.7289961608e-05 -0.00054679943491 -2.9726054354e-05 2.9908399254e-05 -0.00025607963275 0.00019615283353 -0.0006851333714 -0.00096240245216 0.00036155866686 
0.0013971134873 -0.0012200789353 -2.3008303611e-05 0.00045846903093 -0.0010634931932 0.00023637842906 0.0003386495944 -0.00086903787503 0.00059270828223 
-4.2549608159e-05 -0.00018992758344 -0.00010473369532 6.3919434558e-05 -0.0018478505338 0.00032101138743 -0.00055631459456 -0.0013983816337 0.00015371032515 
-0.00032050573541 -0.00086909801424 0.00010304431724 -0.00021605618871 -0.00058217264173 -0.00012010601123 -0.0001903354649 -0.0010492458213 0.00024366489036 
-7.1670969374e-05 -0.00023661248152 -6.5273508675e-05 0.00089925694519 -0.00054567726118 -0.0002372019156 0.00058805854655 -0.0011762114113 -0.00027982159537 
0.00087478113631 -0.0012786637194 -4.0706528607e-06 0.00074694893238 -0.0014454312769 -0.00033183895382 2.1078676499e-05 -0.00091782333145 0.00056516193715 
-0.00031992698931 -0.00033531056065 -9.0212809572e-06 5.6322498772e-05 -0.00083016416501 7.4118611729e-05 0.0004632020549 -0.00032743357617 0.00044412448881 
-0.00048898276194 -0.00034338974356 2.9342836296e-05 0.00031989459321 -0.00074001430681 -3.9986677978e-06 0.00071653224852 -0.0010335152162 -9.3883458676e-05 
0.00054678583315 -0.00037047796064 -0.00038490304605 0.00010197616511 -0.00064935811843 -0.00021622673451 0.00059877890548 -0.0011469496057 0.00010671967333 
0.00098203014277 -0.0015126212567 -0.00036264748639 -2.1997735176e-05 3.3728051222e-05 0.00065360093071 -0.00035468152725 0.00091055852984 -0.0002936530891 
-0.00018399041909 -0.00015233894863 0.00068933325943 0.00054324502324 -0.00075959428149 -0.00028894572274 -6.1801779211e-05 0.00035821318387 0.0007992009459 
0.00016130790567 -9.2843249045e-05 0.00027520982443 3.5450448579e-05 -0.00032257764652 0.0010080248901 -0.00017171217308 -0.00083048159465 -5.510320859e-05 
-0.0014390234138 -0.0015429556286 -0.00049821569576 4.9064595075e-06 -0.00023086264852 5.564299163e-05 0.00075857020628 -0.0012853994493 -0.00024438438514 
-0.00023372924213 0.00031338505328 0.00047086112791 9.3781441748e-05 -0.00066532936191 0.00061548304805 -0.00022967444182 -0.00028012032129 -0.0015158639201 
0.00035265358631 -0.00094599253734 -1.0693567305e-06 -0.00046317651529 -0.0008547074127 -0.00020967050971 0.00094079774717 -0.00098605971199 -0.00086924665324 
0.00049669770735 -0.00045515528584 0.00075427014154 0.00048534208181 -0.00092075191303 -0.00057282231686 0.00083552993739 -0.00034452618191 -0.00023511145754 
0.00047950758886 -0.0016434637793 -1.5263599713e-05 -0.00015803160601 -0.0010622597389 2.6707875802e-05 -0.00022193980359 -0.00019464999219 5.3763376095e-05 
0.0011752912616 -0.00043177920014 0.00074072147163 0.00017304271608 -0.0011456870517 0.0005204704977 2.0778532771e-05 -0.00081277003799 -8.2631110223e-05 
0.00070456107294 -0.0010884549402 0.00055467309087 0.00062798596994 -0.0012647204106 -3.034234285e-05 0.00012569618908 -0.0013244705314 0.00018722279348 
-0.00094069733534 5.3774155829e-05 0.00064644275588 0.00045045235368 -0.00048722922549 -0.00016802484424 -0.0012460152295 -0.0005451706032 -2.2299533873e-05 
5.4331429631e-05 -0.00053068619026 0.00028185220427 0.00020305651654 -0.00061990039582 0.00018761333632 0.00059982273007 -0.0006469663455 8.0751106226e-06 
1.045881596e-05 -0.00046198089829 -5.2148719524e-05 -9.6246917051e-05 -0.00076877519363 5.2597120761e-05 -2.2795343359e-05 -0.0011217908393 0.00062766477954 
0.00045796982099 -0.0012242995541 0.00031053338483 -0.00011456743966 0.00064037648508 -0.004766855052 0.0010073646546 -0.0024519075725 -0.0028620874625 
0.0012117430457 -0.0018354415554 -1.3389326559e-05 0.0012281533163 -0.0017466542235 -1.1122508605e-05 -0.00053764009773 -0.00023610257469 -2.9414932355e-05 
-9.2100355686e-05 -0.00072105729015 -5.8468260617e-05 0.0019140811425 -0.0022832080758 -0.0025160944344 0.0018615412488 -0.0024806029396 -0.0028886637559 
0.0008361791093 -0.0015427073119 -0.00015676853851 0.00034012319068 -0.0027513160785 -0.0031947591871 0.0006489712828 -0.00076826576447 0.00036219750126 
0.00087076356125 -0.0007618972651 0.00062241598371 0.00058984406034 -0.00076684843277 -0.0012854341569 -9.0851249494e-05 -0.0013083000524 -1.762425799e-05 
-0.0011858636402 -0.0016700261606 -0.00080934032561 0.0004346300688 -0.00091898429239 4.7240164776e-05 -0.00016626576773 -0.0010807870351 -4.0246736557e-05 
-2.2378438314e-05 -0.0010151945371 2.8607530342e-05 0.00038073845362 -0.0017414867812 1.9784826257e-05 0.00053858016399 -0.00053783971471 3.4872627526e-05 
0.00039672566556 -0.00060600613449 -0.00095250444291 -0.00073801815225 -0.0014385923578 -0.00086437673847 0.00018033839791 -0.00057392243951 8.418624005e-05 
0.00047248487039 -0.00053554596613 1.6905890028e-05 0.00011429799108 -0.0010608731159 2.6738543914e-05 0.0004594026242 -0.00090598354865 -0.00066256990427 
0.00019245269799 -0.0013208896429 -0.0004417161958 0.0001206632374 -0.00083415488894 -5.36802924e-05 -0.00075199177049 -0.0017275025888 0.00012556045924 
-0.00046127005389 -0.0009142480308 -0.00025497951774 0.00040026322663 -0.0016482879111 0.00029572905268 -0.0012413612169 -0.001453232497 0.00022898929538 
-0.00046728659834 -0.0012721705804 0.00094661168581 0.00010123217343 -0.0010452144129 -0.00013491287632 0.00060712006854 -0.00083461478267 1.7279790693e-05 
0.00070960975856 -0.0014725147852 7.233370317e-05 -0.047304617885 0.0077697993989 0.0549170392 -0.00033874219805 -0.0013046717616 -7.0070917621e-05 
-0.00038611468261 -0.003308537465 0.00075875776281 -6.4171548515e-05 0.00012153336182 -0.00038746502745 -0.00021114298995 0.00053017131732 0.00032205394689 
-0.00013298668357 7.8702709152e-06 1.4670475144e-05 9.8482703195e-05 -0.00093441682556 -0.00048969084333 -0.00020208399927 0.00056967999201 0.0004093271672 
0.00076013507928 -0.00040492702702 0.00013997413534 0.00084345223454 -0.00017341369439 -6.641602645e-07 -0.00026706413363 7.0409686397e-05 0.00096428090382 
0.00012593086941 -0.00065732285041 -0.00084434995962 -0.00025610803132 -0.00058596895199 -0.00029986305629 -2.7361117714e-05 -0.00050929279231 -0.00010290943897 
0.0021701311799 0.00083170021834 0.00047867418139 -0.0003705575828 -0.00042042729989 -0.00010325956132 -0.00043680220928 -0.0010016042175 -0.00045714673816 
-0.00040033357048 -0.0008199653746 -0.00032769804017 -0.0003042589486 -0.0011649409844 -0.00025083454821 0.00058157007271 -0.00074244228496 -0.00050578917246 
0.00105622733 -0.0010476442924 7.1012273077e-06 0.00083846089243 -0.00064036621027 -0.00026515153623 0.00016290439713 -0.00079993479802 -8.0691209052e-05 
-0.00014563889265 -0.00017492440756 -0.00013274871206 0.00054834307977 -0.00069119899785 0.00019228336843 -0.0010869046629 -0.00092992780207 1.8257495691e-05 
-4.7762582677e-05 -0.00072773114931 0.00038113460971 0.00037048001985 -0.00052971948188 -0.00036856167014 5.8048151747e-05 -0.0017085600723 0.00039097622609 
-0.00031028897255 -0.00087830863132 6.0429664073e-05 0.00047891162047 -0.0011195803849 -4.8999508675e-06 0.00072925032483 -0.0010894191718 0.00011080550798 
0.00065044825002 -0.0010363081592 0.00075104054893 0.00060066215677 -0.00081736909717 -7.6308783806e-05 0.0011030944918 -0.0010748060654 1.1339966375e-05 
-2.9557843846e-05 -0.0013344946495 -0.00015102571468 0.00026592820743 -0.001346651981 0.0003210356146 0.00024685939466 -0.001569379864 -0.00040959222738 
-0.00014927925753 -0.0011926268738 0.00056407493936 -0.0001563351955 -0.00057698045705 -0.00017326307733 0.00012444819051 -0.00088179400177 9.5857095027e-05 
0.00015802007583 -0.00088725546231 0.00040134292696 0.00036923822741 -0.0012446739511 0.00022517880067 0.0013633455472 -0.0019242806333 4.7986673414e-05 
-0.0010244151938 -0.0009397581479 -0.00053897800485 0.00016991590147 -0.0011930744458 0.00051031917193 0.00040673855508 -0.00121008963 -0.00027947821011 
0.00024954279566 -0.0014701891974 -0.00050687580852 -0.00038674786251 -0.00078747561771 0.00028331780429 3.7701307178e-05 -0.0009708112794 -5.3710346707e-06 
0.0015755118688 -0.0027064080684 -0.00206548676 0.00033139298881 -0.0011506574927 3.9619597112e-05 3.309479178e-05 -0.0005989090044 0.00017976379275 
0.0015368688218 -0.0010708609193 0.00034067514949 0.00024375842916 -0.00091483297802 -0.00086751788019 -4.6281790028e-05 -0.0019753732399 -0.0014914088822 
2.5876129341e-05 -0.00077235757554 0.00020538357191 0.00059830645831 -0.00047051180968 0.00036673093807 0.0021805669871 -0.0013597117606 1.2989807888e-05 
-0.00043720656515 -0.00064273824308 3.2319460099e-05 -0.00091444556946 -0.0027682788038 0.0040900361384 -0.001410264609 -0.0026385039631 -9.6188674364e-05 
0.00017765891027 -0.00073295596344 7.3251833113e-05 -4.1450467124e-07 -0.0010356760837 -9.9681065812e-05 -0.0001090353408 -0.00081469584732 -7.6462919806e-05 
0.00076875392748 -0.001599829278 -0.00032386713157 0.00046003547662 -0.0010781513835 0.00031019356783 0.00041367003201 -0.00082421705134 0.00032101400254 
1.4706690219e-05 -0.00059876840373 0.00044810876232 0.00050246005839 -0.0010722885655 0.0001227933266 0.00077857667809 -0.00084318100926 0.00019326254098 
0.00029806056409 -0.001119144033 4.3964549561e-05 0.0003917385396 -0.00089856727196 -0.00015820124889 0.00025878344321 -0.0008439838725 5.0407116025e-05 
0.00036464072622 -0.0014024450458 -0.00065938128765 9.1149888149e-05 -0.001488853028 -8.6452999125e-05 0.00085388788386 -0.00063738084485 3.1826664141e-05 
-0.00038182173964 -0.00063506546961 0.00083678915945 -0.0018917756353 -0.00031639088779 -0.0010392310561 1.6576840621e-05 -0.00087599789037 0.00015997435195 
-0.00060373590959 -0.0010345268031 -9.0563770456e-05 0.00030271247564 -0.00091114327141 0.00019979112475 -0.0022111360148 -0.0024809953142 -0.00026463919156 
-0.00073047080781 -0.00054218347292 -7.0972598785e-05 -0.00031720982343 -0.0007309948547 0.00012740196467 -0.00063160652557 -0.0020352816709 0.0013001992519 
0.00067330632645 0.00052749964639 0.00019516004075 -0.00030468591448 -3.0152916094e-05 0.00010554205535 -0.00022365166368 0.00062097871574 0.00066812192722 
-0.00014193170711 -0.0007962539933 0.0010944882639 0.00042080051626 -0.0011137159794 1.6137031599e-06 0.00094090219683 0.00023222188172 0.0011004358087 
-0.0004209567956 0.00025073183285 0.0015821628415 0.00034485442724 -0.00025604094863 -0.00045529751279 0.0012056819086 -4.8300762489e-05 -0.0012940278412 
-0.00040279433941 0.00043274020017 -4.2935976105e-05 -0.00034077910283 0.00033528165712 -0.0014622653751 0.00042128749049 -0.00020146840253 -1.3852631153e-05 
6.3705881412e-05 -0.00029654721459 -0.00081097344634 -8.029303998e-05 -0.0011792196269 -0.00050036471871 0.0010594767801 -0.0010908958628 0.00022116721653 
-0.00018340199723 -1.2471905161e-05 -1.9264641191e-05 0.00091062831005 -0.00021819080482 -0.00085990684552 -0.00040156566753 0.00039567990598 0.00038416458802 
0.00070727073791 -0.00085371103039 -0.00045029610023 0.00024785279667 -0.00053323814202 1.4819405335e-05 -4.2850356443e-05 -0.00032037488385 0.0006805642565 
-0.00049666970366 0.00049040602111 0.00064995363585 0.0001850412154 -0.00047194503605 -4.4732065699e-06 0.00011813994575 -0.0011079618806 -0.00014774345832 
-0.00012652228708 0.00037928034662 -1.2909136208e-05 0.00027569727301 -0.000647311258 0.0010877494695 -0.00075888170781 -0.000133378661 0.00024517860266 
-0.00021756372564 -0.0015597970837 0.00039317718205 0.00080443124725 -0.00068759674566 0.00077660035335 0.0017906748841 -0.00087243136866 0.0012833900481 
0.00075327609609 -0.00071314123337 -2.9524226976e-05 0.00053342336906 -0.00013151966925 8.4420604438e-05 -0.00047320290362 -0.0014679771478 -0.00018164841479 
0.00065245900525 -0.00031326652944 -0.00057494157712 0.00025362677057 -0.00056997877153 -1.8232504505e-06 0.00012961309532 -0.0010255634147 4.2516729623e-05 
-0.0004153108547 -0.00077896112401 0.00011459836878 0.00053016751876 -0.0011970339838 0.00046360011899 -7.2495041851e-05 -0.0003947565971 0.0007465328451 
0.0003732767523 -0.00080793274733 -2.0429440197e-05 0.00080072157706 7.0344632012e-05 -0.0011932807298 0.00052869789425 -0.0016248349049 7.7883574223e-06 
-0.00030072117236 -0.00043879849789 -0.00055708703678 -8.1326454241e-05 -0.0010164682515 0.00054735370254 -0.00032015601324 -0.001169662225 8.3728752493e-05 
-0.00071282483968 -0.0013597605801 0.00016776582804 -7.561037882e-05 -0.00074110248605 0.0002985002331 0.00061947220233 -0.0010634173036 -0.00018201881651 
0.00054001182664 -0.0015583416071 0.00015612268458 0.00029860768669 -0.0011448086412 0.00044768333535 0.00076750952177 -0.00072967756871 0.0010125254243 
9.6735190106e-05 -0.001067811435 -5.1990314972e-06 1.4047151038e-05 -0.00046654880871 0.00022041683698 0.00010060721387 -0.001349800081 -2.2837515905e-05 
-0.00024744517387 -0.0013174210759 -0.00026131894852 -0.0001704406264 -0.001583420379 -0.00080378700137 3.8581093048e-05 -0.0010887723179 -0.00025010040427 
-0.0015887251529 -0.0017772751851 -0.0001730176136 -0.00087013550914 -0.0027302755241 0.0015492242159 -0.00039348429711 -0.00097520761156 -0.00036112124764 
-0.00067534846435 -0.00070141934157 0.00017067352836 0.00051975632443 -0.0008301432449 -1.7964763435e-05 5.1763106601e-05 -0.0007642328851 0.00013009832546 
0.00044786043435 -0.00084806478814 7.3440018271e-05 0.00019262883745 -0.001605020568 0.00056178120101 -0.00057397812812 -0.0023273580055 5.918129105e-06 
8.3501960067e-05 -0.0010617302856 -0.00019857389019 -0.0011214817133 -0.0012716255374 -0.00057219517029 0.0011623425917 -0.0030258983143 0.00013509410714 
-5.5388737425e-05 -0.00088038844612 4.6493547424e-05 -3.5716979762e-05 -0.0017954895995 5.4446592534e-05 0.00013018133383 -0.002444443672 0.00059680476222 
-6.4403792239e-05 -0.0015878595317 0.0047166308809 -0.0010969139942 -0.0031320932968 -2.0354643835e-05 -0.00088502840039 -0.002382756975 0.00044852346087 
-0.00067167269157 -0.0022649365448 0.00014167385164 7.6636514621e-05 -0.00072769771277 1.7572626397e-06 -0.00040413348134 -0.0018298487341 3.1340203136e-05 
0.00087856979049 -0.0017553130138 7.1258247602e-05 0.0011169048688 -0.0014054678479 0.00021059307664 0.0015434991708 -0.0013611163756 0.00068783493403 
9.7075821534e-05 -0.0018203404054 0.00026196803951 0.00097773728326 -0.0013610885251 3.3091954723e-05 -0.0016546459598 -0.0039765159204 6.5271106447e-05 