# vtk DataFile Version 4.1
vtk output
ASCII
DATASET UNSTRUCTURED_GRID
POINTS 1274 float
0.511864 0.556568 0.0379517 0.468893 0.652734 0.105354 0.492312 0.602119 0.268458 
0.494129 0.589056 0.0995841 0.422885 0.757864 0.0323145 0.423878 0.769862 0.118818 
0.475058 0.638653 0.213046 0.459935 0.671908 0.268647 0.392792 0.847864 0.0595833 
0.397801 0.814222 0.16385 0.44502 0.701513 0.21544 0.43173 0.741419 0.265758 
0.361861 0.905163 0.0319704 0.342611 0.970981 0.051144 0.380605 0.880164 0.146345 
0.39396 0.846449 0.232133 0.344395 0.959862 0.260096 0.312839 1.04194 0.0387202 
0.388652 0.916492 0.0869929 0.446631 0.900607 0.11031 0.331275 0.998521 0.12957 
0.408647 0.917042 0.218441 0.309816 1.03919 0.265122 0.351429 0.930898 0.188127 
0.280393 1.1048 0.0481938 0.327401 0.98921 0.200287 0.286002 1.1097 0.260298 
0.256695 1.16501 0.0336648 0.355844 1.11824 0.106005 0.301144 1.0707 0.109823 
0.289457 1.25626 0.0382187 0.30225 1.04688 0.200327 0.282858 1.10221 0.172856 
0.333807 1.26 0.0927425 0.38208 1.16066 0.0367744 0.274868 1.15012 0.110763 
0.420356 1.15238 0.106707 0.259995 1.15223 0.208974 0.339815 1.109 0.211619 
0.218199 1.25732 0.0333444 0.318338 1.19018 0.0557102 0.318877 1.15872 0.174131 
0.244028 1.20077 0.164998 0.287906 1.1844 0.26484 0.238368 1.22384 0.0941992 
0.363964 1.24166 0.0356616 0.235099 1.23375 0.244722 0.214999 1.25841 0.15013 
0.542858 0.470001 0.0302113 0.611229 0.296397 0.0940126 0.594998 0.360046 0.120332 
0.596653 0.348238 0.196428 0.575777 0.38966 0.266496 0.609528 0.315745 0.261209 
0.540113 0.471431 0.210113 0.508159 0.559186 0.219433 0.603168 0.329449 0.0358989 
0.566277 0.418493 0.158919 0.482927 0.626664 0.0386048 0.610287 0.477781 0.0478816 
0.545553 0.47601 0.0985432 0.549217 0.448991 0.268473 0.564682 0.574003 0.262776 
0.526952 0.513586 0.159474 0.549468 0.67016 0.0308547 0.44484 0.712799 0.0779324 
0.51727 0.699067 0.105522 0.470537 0.755318 0.178143 0.5503 0.549197 0.100674 
0.523586 0.660678 0.266701 0.44582 0.698211 0.146665 0.413998 0.779892 0.214206 
0.500696 0.682948 0.170942 0.553591 0.578706 0.168563 0.493638 0.782897 0.0915737 
0.534424 0.762748 0.146166 0.457314 0.817153 0.0363733 0.508138 0.726692 0.0397511 
0.483772 0.819715 0.150702 0.435853 0.83733 0.113369 0.363593 0.896488 0.269731 
0.498626 0.771306 0.260789 0.538541 0.619776 0.218956 0.562716 0.749644 0.220382 
0.467809 0.817465 0.213692 0.505834 0.708395 0.227383 0.459829 0.8918 0.0403308 
0.520574 0.856545 0.035804 0.534687 0.793628 0.032622 0.454179 0.877862 0.177893 
0.494073 0.8526 0.095762 0.466546 0.87208 0.260666 0.438275 0.806243 0.269015 
0.415903 0.95349 0.0373635 0.373073 1.09202 0.0325881 0.464683 1.00656 0.0331244 
0.399453 0.999349 0.0942695 0.414148 0.95032 0.149922 0.466819 0.96595 0.0911205 
0.485652 0.943335 0.26078 0.419671 0.974475 0.26148 0.534852 0.985882 0.2689 
0.457682 0.956813 0.203375 0.382671 1.02733 0.0323969 0.365105 1.05779 0.0853687 
0.463059 1.03396 0.0903881 0.362195 1.06489 0.158708 0.394882 1.00637 0.196957 
0.441264 1.05245 0.264238 0.376626 1.03068 0.267312 0.483663 1.00614 0.235462 
0.455326 1.13872 0.03854 0.470133 1.08514 0.122867 0.426614 1.04387 0.138826 
0.361334 1.09213 0.269157 0.52469 1.18217 0.177671 0.490827 1.10522 0.267885 
0.407962 1.08993 0.213137 0.42994 1.13503 0.26422 0.444947 1.12274 0.166693 
0.359457 1.16225 0.260112 0.509789 1.18915 0.0364746 0.49698 1.14944 0.12261 
0.434607 1.20831 0.0341937 0.373137 1.20756 0.0958726 0.380613 1.13522 0.166278 
0.33866 1.2384 0.260948 0.452912 1.16998 0.207561 0.399838 1.20708 0.216712 
0.469591 1.19228 0.266121 0.485567 1.25693 0.0362705 0.317094 1.21231 0.134289 
0.460416 1.25968 0.244625 0.299508 1.21497 0.204129 0.472712 1.21481 0.169359 
0.381653 1.23594 0.157308 0.639634 0.231403 0.178385 0.56463 0.411565 0.0315341 
0.659949 0.193145 0.0551644 0.66127 0.287649 0.212608 0.639782 0.242047 0.26351 
0.6689 0.174555 0.206834 0.642936 0.222945 0.114606 0.632279 0.408159 0.0363374 
0.592804 0.424834 0.0894051 0.52668 0.510629 0.265844 0.604155 0.489204 0.26286 
0.617359 0.291147 0.158719 0.638669 0.377948 0.245262 0.613894 0.461175 0.137251 
0.586884 0.548354 0.0375176 0.660601 0.424629 0.102104 0.533406 0.637744 0.132386 
0.603549 0.52959 0.146547 0.574429 0.52654 0.211556 0.591664 0.434368 0.220372 
0.613133 0.625697 0.2663 0.60354 0.720224 0.0390335 0.555081 0.611676 0.0650495 
0.568693 0.736556 0.0982482 0.565785 0.699969 0.156934 0.59973 0.711781 0.268229 
0.590062 0.636097 0.173958 0.642435 0.643378 0.210703 0.572186 0.673786 0.224253 
0.596165 0.760723 0.159932 0.58638 0.667509 0.09628 0.639966 0.789278 0.0390281 
0.561312 0.79874 0.0906746 0.541768 0.8156 0.189829 0.544864 0.833348 0.261831 
0.615667 0.77631 0.265249 0.516406 0.875102 0.210056 0.624992 0.711036 0.200258 
0.6003 0.823981 0.221499 0.584907 0.838348 0.0367632 0.56048 0.863673 0.0935255 
0.565013 0.912608 0.0397028 0.502006 0.946937 0.031543 0.552093 0.910729 0.260436 
0.597988 0.968571 0.26555 0.527747 0.864372 0.14679 0.504962 0.926244 0.174067 
0.534129 1.00614 0.051219 0.522267 0.919093 0.107986 0.473551 1.06097 0.188647 
0.467543 0.997041 0.154756 0.536725 0.990347 0.139199 0.51805 1.04849 0.269179 
0.571593 0.946784 0.193008 0.43601 1.06809 0.0347877 0.543472 1.12868 0.0335715 
0.57315 1.06669 0.035173 0.50254 1.07293 0.0461695 0.552288 1.10903 0.0982394 
0.522244 1.05163 0.105559 0.543876 1.01067 0.209813 0.502637 1.12715 0.205431 
0.538172 1.23465 0.0881089 0.576058 1.21318 0.0322875 0.5626 1.17824 0.123939 
0.523663 1.09344 0.153008 0.60411 1.08881 0.268673 0.539956 1.23946 0.158108 
0.534308 1.2148 0.239357 0.565784 1.13323 0.181121 0.55903 1.07508 0.214255 
0.554196 1.13956 0.258791 0.641575 1.21091 0.0440689 0.626575 1.21153 0.112177 
0.464279 1.21632 0.100143 0.651669 1.2555 0.20437 0.595624 1.20146 0.186384 
0.757898 1.18963 0.204375 0.67907 0.130663 0.040897 0.693536 0.118974 0.112411 
0.72156 0.0321987 0.193122 0.681884 0.134568 0.265517 0.698256 0.0935034 0.180995 
0.636537 0.262741 0.0387354 0.694316 0.315779 0.039672 0.702711 0.225437 0.149046 
0.704043 0.267253 0.267353 0.64039 0.407032 0.174998 0.694675 0.200352 0.26745 
0.678123 0.327908 0.266706 0.662166 0.337215 0.137963 0.680785 0.459813 0.0425359 
0.659142 0.495788 0.0972836 0.652505 0.35866 0.077935 0.685718 0.467761 0.158583 
0.648405 0.463075 0.216745 0.680482 0.279204 0.10473 0.730754 0.433732 0.199559 
0.690702 0.354034 0.201225 0.610963 0.646499 0.0351638 0.662602 0.526677 0.0349417 
0.634955 0.558632 0.0889618 0.595161 0.600393 0.120179 0.647722 0.609257 0.156598 
0.6637 0.684921 0.26214 0.637628 0.547724 0.269081 0.686608 0.58353 0.207074 
0.616536 0.579563 0.2081 0.671861 0.548646 0.149782 0.676885 0.517399 0.206271 
0.628302 0.717177 0.122291 0.657868 0.657014 0.0909481 0.696754 0.573504 0.0969975 
0.708039 0.629001 0.137791 0.717183 0.648255 0.206996 0.660679 0.824523 0.268702 
0.664665 0.673357 0.159185 0.623839 0.803855 0.116888 0.646867 0.878478 0.0390988 
0.690435 0.763635 0.0798945 0.707859 0.704618 0.0841965 0.680002 0.764312 0.149278 
0.636541 0.777294 0.202992 0.696584 0.716646 0.204678 0.61367 0.870225 0.26568 
0.582444 0.8739 0.181856 0.614653 0.971359 0.0372501 0.668652 0.986213 0.0762671 
0.628563 0.870026 0.105918 0.643045 0.928394 0.0891969 0.586845 0.910432 0.126527 
0.609951 0.969009 0.138969 0.633662 0.985893 0.209317 0.675464 0.85123 0.148068 
0.636118 0.924096 0.233819 0.643647 0.867645 0.20637 0.633546 0.918529 0.169136 
0.630696 1.1086 0.0300661 0.642124 1.04174 0.0406075 0.694727 1.09394 0.0358784 
0.573759 0.958611 0.0914452 0.59351 1.02291 0.0954669 0.667101 1.0436 0.115909 
0.577956 1.03173 0.26033 0.613166 1.02708 0.16167 0.671193 1.03282 0.184399 
0.616539 1.09136 0.0912274 0.621501 1.1447 0.139118 0.697322 1.16684 0.037085 
0.599042 1.15737 0.0671024 0.583418 1.08098 0.147695 0.62348 1.05711 0.217245 
0.741839 1.13322 0.0832187 0.636806 1.13381 0.22415 0.661129 1.09395 0.167456 
0.604356 1.19768 0.263608 0.749443 1.2144 0.0335637 0.779119 1.19273 0.101894 
0.689986 1.17035 0.106164 0.673175 1.19969 0.168268 0.677967 1.18971 0.259155 
0.722424 0.083307 0.0341615 0.754438 0.122072 0.0764022 0.718387 0.0485376 0.116748 
0.784055 0.0586407 0.12482 0.723006 0.0425617 0.262519 0.734664 0.105848 0.241639 
0.707782 0.242418 0.0350588 0.750849 0.182067 0.0391986 0.768655 0.266123 0.0304457 
0.737563 0.177599 0.110664 0.728202 0.157015 0.173075 0.755388 0.16748 0.2634 
0.774166 0.23066 0.156562 0.769677 0.244573 0.262345 0.730472 0.210688 0.212459 
0.703104 0.391274 0.0363958 0.763998 0.327781 0.0323228 0.720538 0.333165 0.102958 
0.746359 0.253077 0.0932574 0.732179 0.419376 0.0925067 0.764542 0.374427 0.12613 
0.703706 0.387174 0.140748 0.74756 0.320894 0.263464 0.734669 0.282818 0.198688 
0.697095 0.419666 0.260499 0.726477 0.514475 0.0854113 0.753099 0.46378 0.0378086 
0.797513 0.486382 0.0859847 0.754097 0.469671 0.133483 0.789271 0.420393 0.169276 
0.673981 0.49476 0.266634 0.803755 0.511396 0.264176 0.774169 0.402666 0.260579 
0.739971 0.481245 0.247557 0.717804 0.5489 0.263651 0.669035 0.600349 0.0391236 
0.694969 0.66564 0.0315344 0.736324 0.53466 0.174723 0.760869 0.582717 0.120977 
0.678473 0.61446 0.2674 0.752208 0.585454 0.217535 0.745374 0.6237 0.267491 
0.673556 0.724773 0.0331326 0.747535 0.75022 0.111119 0.758786 0.69354 0.0384555 
0.727988 0.755621 0.0312077 0.749121 0.657488 0.0969751 0.739834 0.694651 0.261124 
0.687309 0.818517 0.208599 0.726105 0.693983 0.145726 0.750926 0.745927 0.177893 
0.69379 0.745825 0.269539 0.702032 0.935137 0.0399793 0.716591 0.854964 0.0346141 
0.681143 0.826696 0.0847836 0.693877 0.889881 0.095878 0.739317 0.81115 0.159876 
0.739352 0.840547 0.260085 0.734575 0.778498 0.227895 0.681388 0.886864 0.265524 
0.713614 0.878633 0.206155 0.687544 0.952055 0.26891 0.717768 1.02194 0.0398197 
0.724881 1.07039 0.0897186 0.731736 0.964714 0.101612 0.689472 0.949835 0.205705 
0.67211 0.976652 0.138535 0.694086 0.919585 0.151162 0.729446 1.01173 0.155975 
[...]
POINT_DATA 1274
FIELD FieldData 10
VELOCITY 3 1274 double
0.00051813690471 -0.00051192035328 -0.0004043332863 0.00059146915227 -0.00027111949691 -0.00016402511174 -0.038911141266 -0.014690774009 1.9407816227e-05 
-0.00060494438329 -0.00083925356073 0.0017999440368 -9.9299797e-05 -0.00030433695387 -2.9042828694e-05 0.00036589265848 -0.00085015317246 0.001250636976 
8.1365274839e-05 0.00029334981567 0.00051940387535 -0.00032461628203 -0.00019370519349 -2.5166401237e-05 0.00035402224266 -0.00080300852026 -0.00016877137567 
-3.6167000012e-06 -0.00040821313448 0.00079727133942 0.00023106696067 -0.00057485524904 -0.0003880353127 0.00046139123616 -0.0010656885693 -0.00012326780463 
0.00021628560824 -0.00082386254319 2.9471870337e-05 0.00030242935079 -0.00068248939022 0.00054672880553 0.00026943316391 -0.00055139368624 -1.4489393175e-06 
0.00027189909739 -0.00068628741207 -0.00021680983876 0.00037547165419 -0.00089748118177 -0.00056147645407 0.00035855085699 -0.00065035670219 7.2235373345e-05 
0.00025289713774 -0.0008549081262 -0.00018108975002 -9.3785950016e-05 -0.00085451391164 0.00024522982712 0.00040664646802 -0.0010043301424 0.0003282458301 
0.00013347788397 -0.00073065956048 0.00029023315118 0.0001575808415 -0.00051585983796 -0.0003043962757 0.00016395286406 -0.00056016525038 -8.7576501352e-05 
0.00017972742102 -0.00063240366453 -0.00036587893956 0.00026537451356 -0.00051590891271 -0.0003468002833 0.00025644807811 -0.00054987182153 0.00011070996259 
0.00021665879324 -0.00048451436438 1.1594509134e-05 0.0020739162847 -0.0021084871302 -0.0021693591936 0.00039402502866 -0.00050390965979 -0.00028991477293 
-0.013047003527 -0.027269697162 0.00011069009254 0.00025801912655 -0.00048691444214 -0.00013638638556 0.00020916325013 -0.00048412056985 -0.000223768926 
-0.0097789878031 -0.013814867304 0.00034057030846 0.011950556031 -0.0022735840682 0.0021489205056 0.00040924300263 -0.00081883962387 5.7229088688e-06 
0.0015072647689 -0.00085535111212 -0.00039159485939 0.0002567532716 -0.00049327198563 1.0458104465e-05 0.00021637971917 -0.00071301655189 -0.00019505030331 
-0.013932804651 0.03407654437 0.023434402418 -0.029915058532 -0.05098509711 -0.060607894938 0.00064180783865 -0.00056319164974 -0.00017603639125 
0.00030296597458 -0.00053156741476 -0.00022300465397 -8.1287765615e-05 -0.00056915740549 -0.00010303725045 0.00038311780471 -0.00095545188703 -0.00044717986649 
-0.02291176223 -0.033756843367 -0.00012636693238 0.001829867127 -0.0044535525643 -0.014590671789 0.00025309686545 -0.00064858608753 -0.00063042956739 
-0.0087772935138 0.00337079717 -4.4219011214e-05 0.0011578080271 -0.00097029476124 0.0007598508448 8.5287225771e-05 -0.00061453332114 0.00055975160259 
0.00037211898891 -0.00050115857509 0.00046259602981 0.00035423493542 0.00064898295039 0.0013066620305 0.00038721601658 -0.0012447912899 0.00023744319462 
0.00034034307252 -0.00079313818127 0.00023438563025 0.00023899088277 -0.00015765040993 -0.00016399489665 9.7219869517e-05 -0.00023454261783 1.3994894534e-05 
0.00039513659207 -0.00094447525951 0.00033271456211 0.00032913460747 -0.00078810657983 0.0045880726187 0.00047075485555 -0.00081797921971 -0.0003548275423 
0.00012831993589 3.2671646995e-05 -0.00010874162548 0.00028392199506 -0.00028783147087 -0.00040959863623 -1.2451131908e-05 -0.0012616086932 1.4066373392e-05 
0.00069784015289 -0.00085245365128 0.0004109036206 0.00090309209976 -0.00015832982791 -2.2560954437e-05 -4.0613999184e-06 -0.0001428563911 0.00059339837167 
-5.4749098772e-05 -0.00047569440504 0.00010013655412 0.00019437015418 -0.00021355601348 -0.00022269935746 0.00056684720095 -0.0005790390377 -0.00066023944253 
-0.00049279733566 -0.00050127419215 8.9979492521e-05 -0.00011999882257 -0.00030521184226 0.00046210614223 0.00032406112872 -0.00083714371153 0.0003459132113 
-0.00012008932825 -0.00037357587277 -0.00056922009828 -0.00075019043233 -0.00023965940037 -0.00046563683714 -0.00022701518511 -0.0014509663605 0.00033253969781 
0.00045287555972 -0.00086658017466 -8.6918265139e-05 0.00046596117614 -0.00082584237537 6.7328910322e-05 -0.00032115625834 -0.00047601751959 -0.00062429371975 
3.8105249302e-05 2.9238845374e-06 -0.00014759203181 -0.00069133037997 -0.00073885615732 0.00075369963909 0.00033577524954 -0.00081464536479 -1.8184924862e-05 
8.8835976137e-05 -0.00044653890004 -0.00016756015453 -0.00021780189933 -0.00092887633242 2.6754259392e-05 0.00043337347163 -0.0012046068369 0.00015788948776 
-0.00018764641717 -0.0004119248841 0.00025015872879 5.6060209347e-05 -0.00066431334437 -0.00062926789559 -0.00035343444285 -0.0009007614119 0.00047812112023 
-0.00026023998777 -0.00078557084602 -0.00088824364795 0.00021732952171 -0.00078577598495 0.00075505517503 0.00020656677668 -0.00058658964007 0.00045276131165 
-0.00022757488741 -0.0013290152633 0.00036629762383 -0.0013523660336 -0.00036525921916 2.957906622e-05 -0.00053812119044 -0.0013032761505 -0.00024147189076 
4.0985263801e-05 -0.00081788659157 -0.00013956007532 0.0017582078279 -0.0018956984423 -6.4307275067e-05 0.0026877313716 -0.0012735329322 -2.6584483641e-06 
0.00031655191975 -0.0013898794641 4.0969362905e-05 0.00054712834111 -0.0008003693435 0.0008535798032 0.00053992007849 -0.001288736978 -7.1505031421e-05 
-0.00022262130537 -0.00072591095982 0.0016384873856 0.00015180828404 -0.0003436588413 -8.0892835712e-05 -0.00013733452794 -0.00047843979193 -1.6089822093e-05 
0.02151956854 -0.033520498839 -0.016901650355 0.0014015319748 -0.0013856044029 6.7987380165e-05 0.00046795378223 -0.0019602116332 0.00014484335292 
0.0024057841123 -0.0019511131955 0.00048430791349 0.00066889251716 -0.00082025315059 -0.00020886696651 0.00029840385063 -0.00018658855365 0.00011520080515 
8.2065046493e-05 6.3992864034e-05 0.00012133413169 0.00021643780568 -0.00045531582412 0.00021798577166 -0.00046103917631 -0.00091874013587 0.00018587375002 
0.0026650095309 -0.0017482101645 3.1716606699e-05 -0.001225572847 -0.0012435081968 -0.00011938735395 0.0008375809343 -0.00031083514129 -0.0012183855066 
-0.00017722742023 -0.00047155922286 -4.672069619e-05 -0.0030964652644 -0.0055044898729 -0.011154683295 -0.00052512653558 -0.00099033264933 -3.8730247674e-05 
0.00027526721565 -0.00037554239276 -0.00017751239385 0.00016602781439 -8.2299566659e-05 -0.00017276130975 0.00066491389764 -0.00061615635515 0.00017007927457 
5.6134702604e-05 -0.00022353846423 -4.0249214188e-05 0.0011258720151 0.00095143833236 0.018738947932 0.004560544994 -0.0039095283394 -0.016016991225 
0.0098216889905 0.00025845806695 0.00022362703395 -0.065041798131 -0.059524047054 -0.0085234473731 0.0006782362959 -0.00096157319361 -1.211441622e-05 
-0.00038439847376 -0.00034700807839 -0.0005996113939 0.00085731566442 -0.00089664804811 0.0003974895872 -0.0085270495158 -0.0098151866552 -0.018172192823 
0.0019937683703 -0.00108228542 4.2803697003e-05 0.007157393067 0.0030850836399 8.0723183179e-06 -0.036729905344 0.015595324715 0.02330874902 
0.18134390747 -0.034538832188 -0.18133942322 0.00038915702198 -0.00068250451803 -0.00014209755161 0.00025505371258 0.004328279429 0.0061635543955 
-0.065892930416 -0.042035998541 -0.01635809509 8.4088809198e-05 -0.0004189690489 0.00011351875031 -0.00057323387574 0.0014698037706 1.9299479738e-05 
-0.00021641277151 -4.7899181653e-05 0.00037207994166 0.00012858122979 -8.5435774637e-05 0.00027283465024 8.7183426126e-05 5.1621196337e-05 0.00080224144879 
0.00030838571996 -0.00011679594287 0.00016284881039 -7.3153359507e-05 -0.00016889773588 0.00048144745382 -0.0009287203325 -0.0017314455547 -0.0001057117572 
-0.0017305230611 -0.0012171419174 -0.0013566136323 -0.00016634709532 -9.6164080922e-05 3.2498858486e-05 0.00058717569852 -0.00089289052409 0.00010179049361 
-0.00037632745419 0.00037531436416 0.0010361341612 -8.843379503e-05 -0.00044423672592 0.00037798944005 -0.00024650268562 -0.00030173816855 -0.00019975890965 
0.00036693806567 -0.00097699503731 -6.7157930688e-05 -0.00075517026601 0.00016320943175 1.8046335754e-05 0.00042001837137 -0.00042828400132 -0.00059616014665 
0.00016859706716 -0.00068055304043 0.00087326033422 0.00044072504461 -0.00088084608913 -0.00038825031856 0.00094075543094 -0.0003262663176 -0.00013864244296 
0.0004614620838 -0.0015833753605 -9.26308557e-05 -7.2715104157e-05 -0.0013371289287 -7.4050955902e-05 -0.00071387661629 0.00018617682633 0.00061520187404 
0.00048782355305 -0.0018811499697 0.00057402218191 0.00051554842743 -0.0011405359496 0.00082094588994 -0.00015222639617 -0.00085790662191 -8.880269198e-05 
0.00095399901675 -0.0011996641364 0.00018378755024 0.0010188996811 -0.0009385874517 -4.6106761264e-05 0.00025886166637 -0.0014793746379 0.0001218482316 
-0.0010002770643 0.00039920822248 0.00013173162846 9.9754561329e-05 -0.00082435614416 -0.00028219424085 -0.001178701315 -0.0013067816544 5.1856379546e-05 
-0.00059126952289 -0.0007793894472 0.00045756531883 -3.3921025069e-06 -0.00084280255606 9.1728023206e-05 0.00030562762214 -0.00027207032336 -0.00021917873489 
-0.00016391647146 -0.00074599279465 9.1123865802e-05 0.00049494773236 -0.00076603118082 0.00033960238017 -0.00020055632969 -0.00098873283738 -0.00014646615974 
0.00026013976339 -0.0012605718518 0.00031228416513 -2.7689148234e-06 -0.00014025102692 -0.0012000408653 0.00059909911714 -0.0016542741731 -9.4817152578e-05 
0.0021671709229 -0.0026477666467 0.00013479796951 0.0024513702295 -0.0032975464346 -4.6487319156e-05 0.00025558352481 -0.00028313057475 -0.00010106919557 
1.5528803392e-06 -0.00027279935658 4.716959376e-05 0.000508185733 -0.0009375141403 -0.00034615826646 0.001208551838 -0.0014993508369 -0.00093126824068 
0.0021733935973 -0.0029939200073 -0.00045104716104 0.00060125008992 -0.0015019923064 -0.0010760024674 0.00032001231603 -0.0014362855342 -0.00039800661333 
-0.003225896498 0.0025535756354 0.010658967856 -0.006877414541 -0.0066972499224 -0.0015586931842 -0.0004595995863 -0.00087673815003 0.00014040432792 
-0.00065442910832 -0.0015405975526 -0.0012790352666 0.0019478341395 -0.0014450912588 0.00031162549232 -0.020840694287 -0.010547499003 -7.2799722728e-05 
-0.00050271321215 -0.001063535993 7.785637272e-05 0.062870692213 -0.3897147796 -0.1582873072 -0.0036841381215 -0.0033950797246 -0.0276998827 
0.0030892112392 -0.0034118986254 5.973138612e-05 -0.00097957912436 -0.0017924491032 -0.0004373982132 0.00033957263993 -0.0012812293107 0.00013121036191 
-0.0054499022355 0.0047403800802 0.0041412331189 -0.01760564836 -0.0051862554283 -8.931369961e-05 0.0033937959393 -0.0015754045937 -0.011932662153 
-0.0023040371045 0.00024629970449 -0.0029378545775 0.0012061978594 -0.00068490717704 -0.00014670427018 -0.0019481111464 -0.00041736080529 0.0044259302018 
-0.0013077722678 -0.0052976647178 -0.011592434574 -0.0008043544103 -0.0030291403434 -0.0030547032539 -0.00068017642028 -0.0018373990496 -0.00070020592541 
-6.4365615296e-05 -0.0017686765295 0.00078916274905 -0.016992222226 -0.016767574869 -0.0051820902729 -0.010339522832 -5.6976638983e-05 -0.0038846937258 
-0.0046741997227 0.0036249569078 0.0066991118972 0.12302093807 -0.087314160023 0.20898113159 -0.0013256108315 -0.0029818818769 -0.0002766611102 
0.0053045351539 -0.0030132153653 -0.040753591732 -0.00013208801309 0.00024135097335 -0.00066720771026 -0.00039168041526 0.00097148083514 0.00083102851709 
0.00013164152985 -4.2031843838e-05 -0.00016859284151 0.00019309498469 -0.0010502245293 0.00020100031261 -0.00034117492845 0.00075925855244 0.00090593913287 
0.00046072910905 5.4550787587e-06 -0.00017617019284 0.00085243434631 0.00022720345115 -9.8616447071e-06 -0.00018849417482 -0.00036817033113 0.00050868790665 
8.931155466e-05 -0.00040718269569 -0.00095758215768 -0.00022320285599 -0.0007415671154 -0.00079605229689 0.00023889874809 0.0003072490698 -6.0452528986e-05 
0.0019291007832 0.0011570424098 0.00047579830567 0.00014850063745 -0.00077767825105 -0.00025631676786 -0.00071496151578 -0.0013036294601 0.00092443958585 
0.00014276956637 -0.00035590539735 -0.00016080698275 -0.0021835097587 -0.0022605111639 -0.00040748166237 0.00058059573872 -0.0009361184391 -0.00056908804849 
0.0013796207664 -0.0012320776697 -9.6046693423e-05 0.0010390807558 -0.00047775934183 -4.8557435504e-05 0.00020096787364 -0.0009259002807 -9.4322467908e-05 
-0.00085895473501 0.00078476113998 -2.2961403325e-05 0.0005133912491 -0.0012433678615 0.00027343631941 -0.00137369573 -0.0015458684864 -5.4137628234e-05 
-0.00012891436271 -0.00027433113771 0.00077596028915 0.0004863386278 -0.00057425987818 -0.00065675407733 0.00039788512786 -0.0016554364904 0.00038364286916 
-6.7992243747e-05 -0.00095017060046 4.2986630326e-05 0.00062934820665 -0.00088616956711 1.0275562598e-06 0.00067468760593 -0.0013529182706 0.00021473116915 
0.00065958029772 -0.0013184686192 -0.00069142727944 0.00074100733007 -0.00079896180455 -0.00011274570012 0.0011256809803 -0.0014367518645 -0.00016551922496 
4.4919895501e-05 -0.0020865589416 0.00052943818604 2.5355596287e-05 -0.0020588364885 0.00048974003715 0.00030285037742 -0.00099528553694 -4.4169904267e-05 
0.00044048562979 -0.0009701936957 0.0010098189257 -0.00093730404056 -0.00054139420864 -0.00020934018482 0.00029743762645 -0.00091234744749 -0.0001421740698 
0.00059633201298 -0.00092142283065 0.00035303320165 -0.00019295499498 -0.0010652876456 -0.00065501699939 0.00028538660402 -0.0011626822088 -1.1937085151e-05 
-0.00099797007297 -0.0013507978422 -0.00052745861995 -5.4528776458e-05 -0.001978491135 0.00094953449848 2.1134140193e-05 -0.0010776523687 -0.00032675236404 
1.9468359738e-05 -0.0016513451052 -0.00014067973068 -0.000146998897 -0.00055401028088 0.00010533064271 -0.00014903397416 -0.0011624857075 -5.1642371303e-05 
0.00050028687837 -0.0015633269371 -4.9877076613e-05 0.00065065009148 -0.0011968016349 -6.1704196761e-05 0.00024873815866 -0.00019998164655 0.0004527793393 
0.001123342432 -0.00083723481705 -2.006827799e-05 -9.2395752896e-05 -0.00082800414197 -0.00054537389901 0.00058773357555 -0.00082804987636 -0.00068130705299 
-0.0012164406345 -0.0002543106243 -0.0013163884398 0.00081658537261 -0.00029707575096 0.0008643608258 0.00086089990458 -0.0014111441935 -0.00019847540657 
-0.00075507374287 -0.0013074230479 -0.00030609341791 0.00085421369448 -0.00061464154737 -0.00057982952597 3.8784314908e-05 -0.00064335257963 -6.649121227e-05 
-0.00027255740004 0.00072548219763 -0.00010968592408 -0.00030418644268 -0.00066516685799 -0.00082194827065 -0.0005933179747 -0.00027117075558 2.8330689346e-05 
-0.001186167745 -0.0010391369605 -0.0011672777143 0.0012440253215 -0.0020803718899 0.00018284287869 0.00056282340972 -0.00017535961225 0.00015525829215 
-4.9610797314e-05 -5.6084861942e-05 0.00064468191855 0.00042304059797 -0.0011179258087 0.00023465822641 0.00051891633922 -0.00065578968531 0.00014821728025 
-0.0001986306908 -0.0015769004408 -0.00090431664068 0.0015387823423 -0.00043350940473 -0.0025016360635 -0.003184512767 -0.00010665011792 -0.00012165774916 
-0.022286233233 -0.0071913970287 -0.00015110672959 -0.0031544008668 -0.0038863012281 -0.0030456883201 0.00019440386018 -0.00048940037799 -0.00023393328489 
-0.001858943504 0.0011629724758 -0.00050601854989 -0.0041378565825 0.0016165774132 -0.0019081639898 -0.0013615007577 -0.00079188464283 0.00069744568703 
-0.0025328134268 0.00041224013021 -1.1648694921e-05 -0.0025310423975 -0.00087968326375 -0.00031920950499 0.066523452232 -0.037511165655 -0.013744926632 
-0.0020562565111 0.00030386361033 -0.00025587673198 -0.0012737073572 7.4545245234e-05 -0.00016035082512 -0.003863578856 -0.0068090801416 -0.0097902419848 
0.00028726899247 0.00027722149945 0.00022923670533 -0.0010402764925 -1.1954322436e-05 -0.00021077806929 -0.00031992499209 0.00095119357106 0.0014076673721 
-0.00032130771071 -0.00081019873691 0.001057271986 0.00021147033683 -0.00057470712252 -3.9715724863e-05 0.00087533764076 0.0004628677713 0.00058978366475 
-0.0002503055288 5.2697335119e-05 0.0012731815809 0.00032985726169 0.00017200773401 -0.00023314786886 0.00050662022049 0.0019027709228 -0.0011212412242 
-0.001258122843 -0.0010002659493 -0.0003677180563 -0.00029771656704 -0.00082858654828 -0.00024569495706 0.00047372739347 -0.00025590198427 4.597434968e-05 
8.6271925109e-05 -0.0003095678496 -0.0013092835223 -0.00012954074696 -0.00090752252831 -0.00069819642631 0.00052901337622 -0.00063567095779 0.00019475408929 
-0.00043405828859 0.00035987071893 -2.0137860321e-05 0.00056924588314 -0.0001170710518 -0.0012858411164 -0.00042507326319 0.00052392821358 0.00044899292614 
0.00083092806957 -0.00072200134273 -0.00084856194598 0.00043766590735 -0.00052243196236 2.117790088e-05 -0.00062102617256 -0.00044889612744 0.00049122311804 
-0.00022763288735 -0.00080870500933 -0.00054496164628 0.00023096601895 -0.00042318562457 0.00013636325489 0.00020978973467 -0.00086400169843 0.00034924751389 
-0.00025331866304 0.00055587179893 -2.4822106836e-05 0.00018347554182 -0.00038752629319 0.0011967333651 -0.00085925930926 0.00010962587901 -0.00019896423178 
-0.00043876866169 -0.0016391373849 0.00049273455915 0.00094310130766 -0.00044218290836 0.00063802790488 0.0011987118665 -0.00073740155729 0.00089593904793 
0.00060438715833 -0.00070757732556 -2.6045284877e-05 0.00059838661819 -0.00046077557805 8.929016627e-05 -0.00058561100495 -0.00096973239657 -0.00019559997912 
0.00057957370759 -0.00017031977145 -0.00076828872774 0.00012386585263 -0.0004903447024 4.3609108093e-07 -9.0060787103e-05 -0.0017888861716 6.803360977e-05 
-0.00054672605935 -0.0014440408724 0.00013983434567 0.00061166126012 -0.0013559983125 0.00025428197123 0.00012785176384 -0.00018135639017 0.0007185470287 
0.00049154620168 -0.00093358953463 -2.5545823454e-05 0.00091868514442 -5.6112240422e-05 -0.0013220753294 -0.0042534783897 -0.0027406334744 1.2941752301e-05 
-0.00034387233784 -0.0010655744884 -0.00075356178099 -6.3677897316e-05 -0.0011170936963 0.00089635250701 -0.00074989974938 -0.0011576244795 7.7615003664e-05 
-0.0010842127214 -0.002167047638 7.442875491e-05 -0.00039098688634 -0.00084947958163 -0.00015386809491 -9.5304256611e-05 -0.00076266549344 -1.5839070889e-05 
-0.00014050292372 -0.0011946614064 0.00012496920657 0.0005794886018 -0.0016105890764 0.00086078532053 0.00072788189888 -0.00014156758243 0.0010060097961 
-0.00029839957072 -0.00067584896299 3.0401814508e-06 -0.00031688944632 -0.0006079710859 -6.02859762e-05 0.00062461920622 -0.00097917021725 -2.1480266766e-05 
-0.00027920211914 -0.00070910565153 -0.00053515540991 1.3679384978e-05 -0.00053440164671 -0.00016620483702 -0.00047331451457 -0.00049251382967 -0.00046680930267 
-0.00069500009296 -0.00077485318467 -0.00019969160862 -0.0010312251745 -0.0016562511708 0.0012975934419 -0.00074730415272 -0.00026792401432 0.00045928061836 
-0.0014493708606 -0.00025882855013 0.00065214533056 0.00075043165862 -0.00081123618399 -5.6327976171e-05 -0.00036572462475 -0.00030527398112 7.5732092384e-05 
0.00019330698762 0.00074919503483 -0.00010874810879 -0.0014815563698 -0.0048674222045 0.0027298903155 0.00047986137873 -0.0012512809461 -0.00012855989819 
-0.0010309485012 -0.00011815267742 0.00044222584287 -0.00076619854714 -0.0004292163143 -0.00071228408731 0.0007755700084 -0.0033047607276 0.0014619506756 
-2.6760440236e-05 -0.00030264162491 3.7376818868e-05 -0.00016875977705 -0.0012536245963 -0.00016927387013 -0.0012592279383 -0.0051272349015 0.0024692176564 
-0.00060243232105 -0.00092916128961 0.00031735095421 -0.0038604617293 -0.0030199459938 -3.2928067949e-05 -0.029896611242 -0.010362271003 0.097250977745 
-0.0025649815645 -0.0019665040419 -0.00087244028521 -0.00044925406248 8.5484636275e-05 0.00050414159941 -0.00022808547879 -0.0010781633114 -0.00033800595901 
-0.00087457669041 -0.00030490499733 -0.00015752069073 0.0011300922665 -0.00083362617485 -0.0012905676796 0.0014789335639 0.00068016430475 0.0074612548374 
0.0010728009612 -0.0010409704872 7.9775251399e-05 -0.00084100859323 0.00038127242349 0.0014950153357 -0.0032485582748 -0.0046325933227 -0.00010339898842 
0.10657940245 -0.063066505126 -0.041644202421 0.042358716655 -0.22385580455 -0.023846667088 -0.0024664596099 -0.0011996585406 -0.0013138544685 