# vtk DataFile Version 4.1
vtk output
ASCII
DATASET UNSTRUCTURED_GRID
POINTS 1274 float
0.512158 0.555856 0.0379507 0.469084 0.652244 0.105445 0.487268 0.599478 0.268458 
0.494326 0.588574 0.0994295 0.423151 0.757219 0.0323138 0.42405 0.769439 0.119132 
0.475184 0.638353 0.213096 0.459766 0.671554 0.268648 0.393126 0.847057 0.0594156 
0.397972 0.813807 0.164157 0.445242 0.700961 0.215227 0.43206 0.740636 0.265757 
0.362166 0.904421 0.0319703 0.342955 0.970143 0.0515034 0.380807 0.879671 0.146339 
0.394222 0.845814 0.231904 0.344718 0.959077 0.260011 0.313205 1.04105 0.0387195 
0.389354 0.915618 0.0868255 0.446837 0.900139 0.110203 0.331574 0.997802 0.12977 
0.408636 0.916495 0.218379 0.309954 1.03885 0.265122 0.351566 0.930564 0.187883 
0.280765 1.1039 0.0482995 0.327567 0.988805 0.200436 0.28614 1.10936 0.260297 
0.25703 1.1642 0.0336644 0.35622 1.11748 0.105216 0.301353 1.07019 0.109637 
0.28954 1.25396 0.0382188 0.302417 1.04647 0.200316 0.283058 1.10173 0.172657 
0.332486 1.25723 0.0929809 0.383747 1.15961 0.0371054 0.275078 1.14961 0.110567 
0.420757 1.15156 0.106644 0.260202 1.15173 0.208801 0.33982 1.10832 0.211478 
0.218346 1.25696 0.0332147 0.319063 1.1879 0.0546657 0.319316 1.15807 0.173794 
0.244239 1.20025 0.164809 0.287551 1.18407 0.26484 0.23858 1.22332 0.0939597 
0.370938 1.23352 0.035663 0.236235 1.23099 0.236652 0.215215 1.25789 0.149896 
0.540391 0.4714 0.0302106 0.611457 0.295835 0.0941934 0.595258 0.359415 0.120693 
0.596742 0.348022 0.196856 0.575884 0.389399 0.266498 0.609739 0.315242 0.26147 
0.540391 0.470758 0.209926 0.508282 0.558892 0.219375 0.60327 0.3292 0.0358989 
0.566524 0.41789 0.159219 0.483223 0.625945 0.0391051 0.610017 0.476952 0.0481078 
0.545703 0.47566 0.0985193 0.549323 0.448735 0.268473 0.564902 0.57317 0.262776 
0.527129 0.513153 0.159515 0.550053 0.669876 0.0308585 0.44501 0.712395 0.0782144 
0.517301 0.698737 0.105898 0.470879 0.754851 0.178147 0.550594 0.548845 0.100701 
0.523361 0.660011 0.266702 0.445936 0.697934 0.146488 0.414286 0.779186 0.214277 
0.500778 0.6823 0.170602 0.553796 0.578275 0.168524 0.493672 0.782057 0.0917714 
0.534752 0.762255 0.14614 0.457739 0.816413 0.0363747 0.508199 0.726035 0.039754 
0.483993 0.819269 0.150695 0.436059 0.836871 0.113371 0.363912 0.895714 0.269731 
0.498857 0.770775 0.260787 0.538505 0.618974 0.219141 0.562895 0.749037 0.220327 
0.467364 0.817065 0.213524 0.506095 0.707642 0.227072 0.459779 0.89108 0.0402078 
0.520426 0.855647 0.0357551 0.535084 0.792846 0.032623 0.454165 0.877342 0.177795 
0.494339 0.851776 0.0956451 0.465512 0.871532 0.260664 0.438251 0.8055 0.269011 
0.416277 0.953075 0.0373625 0.373292 1.09119 0.0325887 0.465378 1.00604 0.0331285 
0.399818 0.998539 0.0945813 0.414665 0.949651 0.150317 0.467314 0.965426 0.0911346 
0.485417 0.94257 0.261414 0.419526 0.97391 0.261479 0.534836 0.98509 0.268901 
0.459026 0.95437 0.202902 0.383251 1.02619 0.0323973 0.365229 1.05677 0.0852338 
0.463361 1.0334 0.0904076 0.362419 1.06439 0.158506 0.395044 1.00594 0.19691 
0.441366 1.05213 0.264238 0.376754 1.0303 0.267485 0.483388 1.00526 0.235812 
0.455855 1.13792 0.0385397 0.470363 1.08436 0.123247 0.426914 1.04341 0.138826 
0.361162 1.09168 0.269156 0.525042 1.18062 0.176297 0.490105 1.10412 0.267863 
0.407956 1.08947 0.213107 0.429595 1.13471 0.264219 0.445261 1.12196 0.16669 
0.359062 1.1618 0.260112 0.51025 1.18846 0.0382102 0.498087 1.14811 0.118514 
0.435836 1.20771 0.034194 0.369055 1.20342 0.101332 0.380965 1.13464 0.166494 
0.338956 1.23813 0.260952 0.452977 1.16917 0.207631 0.402042 1.208 0.220846 
0.469334 1.19189 0.266121 0.486689 1.25645 0.0362705 0.312108 1.21374 0.137409 
0.459822 1.25042 0.226451 0.300163 1.21422 0.204116 0.473326 1.21408 0.169803 
0.372462 1.23114 0.163558 0.639644 0.231381 0.178887 0.564322 0.412312 0.0315351 
0.65998 0.193078 0.0557927 0.661458 0.287295 0.212695 0.639964 0.241604 0.263511 
0.668987 0.174345 0.206884 0.642859 0.22315 0.115073 0.631871 0.407322 0.0363444 
0.592538 0.424062 0.0895069 0.526784 0.510377 0.265843 0.604739 0.488277 0.262789 
0.617401 0.291049 0.158945 0.638892 0.377745 0.245565 0.613671 0.460815 0.137018 
0.58718 0.547676 0.0375169 0.660393 0.424259 0.101906 0.533721 0.637218 0.132138 
0.603889 0.529282 0.146546 0.574937 0.525715 0.211604 0.59215 0.434074 0.220487 
0.6133 0.624915 0.266299 0.603493 0.719441 0.0390313 0.555207 0.611205 0.0648262 
0.568873 0.735459 0.0984607 0.566058 0.699192 0.157352 0.599754 0.711082 0.268228 
0.590657 0.635395 0.174213 0.643175 0.642134 0.21086 0.572088 0.673038 0.224368 
0.59648 0.759947 0.159915 0.586639 0.667139 0.0960871 0.639452 0.788737 0.0390302 
0.561303 0.798076 0.090849 0.541993 0.815076 0.189841 0.545068 0.832839 0.261834 
0.615864 0.775568 0.265249 0.516048 0.874151 0.210575 0.625118 0.71013 0.200612 
0.600522 0.822951 0.221648 0.584813 0.838211 0.0356246 0.560647 0.862188 0.0930849 
0.565587 0.91113 0.0397008 0.503464 0.945049 0.0315427 0.551991 0.910249 0.260436 
0.598025 0.96798 0.265549 0.528209 0.863664 0.146515 0.505633 0.924914 0.173103 
0.53488 1.00467 0.0510786 0.522405 0.91776 0.106885 0.473547 1.06019 0.18904 
0.468012 0.996454 0.154806 0.536987 0.989538 0.138457 0.517989 1.04772 0.269179 
0.570988 0.945521 0.192453 0.436272 1.06737 0.0347797 0.539463 1.12581 0.033572 
0.573009 1.06583 0.0351733 0.50389 1.06649 0.0328709 0.552183 1.10832 0.0954713 
0.522804 1.05087 0.104777 0.543265 1.00939 0.209318 0.502757 1.12641 0.205434 
0.53803 1.23493 0.0889768 0.573745 1.21206 0.0322878 0.563151 1.17781 0.123161 
0.523001 1.09253 0.15238 0.604542 1.08804 0.268671 0.539452 1.23887 0.159039 
0.533964 1.21315 0.238144 0.565831 1.13149 0.180557 0.557714 1.07392 0.214387 
0.553785 1.13807 0.259467 0.639315 1.20788 0.0432173 0.621514 1.2105 0.110599 
0.464281 1.21582 0.10067 0.647335 1.23699 0.221354 0.594978 1.19998 0.186368 
0.759024 1.18595 0.207777 0.679021 0.13079 0.040553 0.693329 0.119467 0.112761 
0.721563 0.0322005 0.192868 0.681999 0.134289 0.265517 0.698021 0.0940745 0.181376 
0.636975 0.26266 0.0387325 0.695064 0.315641 0.0396735 0.702552 0.225123 0.149701 
0.704195 0.266888 0.267353 0.640324 0.406622 0.174594 0.694959 0.200043 0.267451 
0.67833 0.327568 0.266702 0.662568 0.336594 0.137797 0.680396 0.458998 0.042236 
0.659041 0.495432 0.0971807 0.652286 0.357727 0.0777494 0.685835 0.467255 0.158321 
0.649101 0.462345 0.216826 0.681267 0.27871 0.104542 0.727403 0.412755 0.19407 
0.690621 0.353779 0.201188 0.611374 0.645762 0.0351627 0.661925 0.525809 0.0349397 
0.635109 0.5584 0.0890003 0.595191 0.600153 0.120077 0.647813 0.608142 0.15661 
0.663733 0.684242 0.262134 0.637838 0.547003 0.269081 0.686796 0.582911 0.207131 
0.616725 0.57901 0.208472 0.672375 0.54768 0.149968 0.677298 0.516752 0.206208 
0.628421 0.715981 0.122534 0.658025 0.655735 0.0912838 0.69693 0.573034 0.0972578 
0.708243 0.628113 0.138415 0.717201 0.647713 0.206918 0.660751 0.823895 0.268703 
0.664825 0.672625 0.159394 0.623936 0.803164 0.116813 0.647361 0.877338 0.0390993 
0.689705 0.762171 0.0795754 0.707924 0.70346 0.0846941 0.680012 0.763387 0.149065 
0.636858 0.776371 0.203029 0.696689 0.716136 0.204793 0.613593 0.869432 0.265677 
0.582959 0.872762 0.181621 0.614819 0.970225 0.0372508 0.668633 0.985465 0.0763748 
0.629492 0.86931 0.106089 0.643493 0.927634 0.0888123 0.586811 0.909052 0.126006 
0.609922 0.968151 0.138997 0.634242 0.985332 0.209674 0.676456 0.850086 0.147977 
0.635903 0.923337 0.233753 0.643796 0.866579 0.20705 0.633042 0.917012 0.169151 
0.630445 1.10796 0.0300645 0.641968 1.04075 0.0402104 0.694434 1.09312 0.0358784 
0.574285 0.957511 0.0911092 0.593975 1.0218 0.0955737 0.66753 1.04299 0.115829 
0.577961 1.03113 0.260434 0.613598 1.02616 0.161776 0.671682 1.03209 0.184299 
0.616596 1.09037 0.0911941 0.621776 1.14398 0.138759 0.696843 1.16603 0.0370846 
0.596301 1.15467 0.0647479 0.582525 1.07907 0.146913 0.624015 1.0566 0.217112 
0.74127 1.13268 0.0835031 0.635958 1.13338 0.223589 0.661031 1.09316 0.167483 
0.603683 1.19647 0.263609 0.74915 1.21338 0.033559 0.790536 1.1832 0.100851 
0.689436 1.17004 0.106129 0.672564 1.19912 0.168334 0.677303 1.18802 0.260359 
0.722156 0.0831769 0.0341649 0.754075 0.121977 0.0764478 0.718172 0.0490627 0.117619 
0.784004 0.0582123 0.125493 0.723293 0.0418684 0.262519 0.735014 0.105388 0.242392 
0.707774 0.242143 0.0350588 0.75107 0.18197 0.0391983 0.768653 0.26586 0.0304517 
0.737151 0.17774 0.110557 0.72807 0.156629 0.172833 0.755757 0.167326 0.2634 
0.774152 0.230334 0.155793 0.769644 0.243743 0.262035 0.731154 0.209946 0.21264 
0.702931 0.391237 0.0363959 0.764677 0.327585 0.0316093 0.720301 0.333428 0.103248 
0.74701 0.252315 0.0928995 0.732377 0.418943 0.0925106 0.764451 0.374179 0.126653 
0.703564 0.387184 0.140843 0.747761 0.320488 0.263464 0.734738 0.282004 0.198321 
0.697015 0.419998 0.260497 0.726586 0.513878 0.0861504 0.75269 0.463609 0.0378105 
0.79727 0.485255 0.0862793 0.754542 0.469186 0.134141 0.78971 0.419827 0.169836 
0.674526 0.494269 0.266635 0.803974 0.511464 0.264172 0.77379 0.401681 0.260576 
0.740434 0.481086 0.247053 0.718139 0.548578 0.263651 0.669269 0.599386 0.0391271 
0.694597 0.664907 0.0315329 0.736792 0.533774 0.175074 0.761066 0.581931 0.121295 
0.678689 0.613964 0.2674 0.752468 0.585352 0.217018 0.74325 0.6224 0.267491 
0.673479 0.724147 0.0329569 0.747714 0.749187 0.111521 0.758475 0.692654 0.0384695 
0.727859 0.755096 0.0312092 0.748713 0.656564 0.0969577 0.739975 0.693935 0.261127 
0.687629 0.817577 0.208742 0.726425 0.692919 0.146163 0.751187 0.745413 0.178324 
0.693919 0.745098 0.269539 0.70203 0.934477 0.0399806 0.717123 0.853846 0.0346132 
0.681287 0.825689 0.0845682 0.694113 0.888864 0.0956229 0.739249 0.810351 0.159521 
0.738708 0.839313 0.260086 0.733945 0.776814 0.228773 0.68128 0.886293 0.265524 
0.713069 0.878075 0.206592 0.687917 0.951439 0.268911 0.717677 1.02118 0.0398205 
0.725464 1.06953 0.0897221 0.727006 0.953596 0.107558 0.689458 0.948402 0.205729 
0.672042 0.976089 0.138673 0.69346 0.918716 0.150827 0.730278 1.00991 0.155614 
[...]
POINT_DATA 1274
FIELD FieldData 10
VELOCITY 3 1274 double
0.00046854867265 -0.00045440704189 -0.00037691999707 -0.00010053649956 -0.00090243661312 -0.00053377260362 0.00028903676867 -0.00064722836211 -4.8676521994e-06 
0.00028261661693 -0.0017018202415 0.001471505838 0.00019308855106 -0.00087322972376 -0.00016871506145 0.00039145810752 -0.00067893049016 0.00043644091039 
0.00022284288354 -0.00040180879381 0.0002794645718 -0.00053527510041 -0.00089599435816 1.363492203e-05 0.0005479422927 -0.0012354676406 -0.00024448856998 
0.00021291463584 -0.00052448866044 0.00015868455392 0.00026433823732 -0.00082593581446 -6.9001015926e-05 0.00033992666225 -0.00088122580381 6.0790861862e-06 
0.00040110163205 -0.0010968233444 7.9027079079e-06 0.00048818438848 -0.0012378393389 0.00066068112238 0.00028786561954 -0.00053550113247 0.00015890367782 
0.00034488549158 -0.00082103262594 0.00024245766955 0.00040277283222 -0.00089246035174 -0.00014849082198 0.00053263561748 -0.0013244878403 3.47979857e-05 
0.0004333728799 -0.00084718975211 -7.0857205103e-05 6.4869234392e-05 -0.00091493623567 0.00017687301141 0.00047879393189 -0.0011962774489 0.00029931203679 
-7.0745210273e-05 -0.0007537147968 0.00023222640294 0.00031487741447 -0.00077070880374 0.00012386221697 0.00014841949417 -0.00037262093146 0.00015955697776 
0.0005614813679 -0.0013286272668 0.00031990465735 9.619432039e-05 -0.00034027861045 0.00031033580272 0.00027253834063 -0.0006811550398 -2.5772775212e-05 
0.00031121453109 -0.00072553452929 -2.3557621605e-05 0.00041444052437 -0.00080557623035 -0.0011796051732 0.0003144390828 -0.00066758075525 -0.00061474575851 
0.00029361558515 -0.0011284673212 2.4906854623e-05 0.00016259077903 -0.00033321705859 -1.1288735449e-05 0.00022111124242 -0.00054052013684 -0.00039565128935 
0.000756966921 -0.0011967979105 -0.00032937614073 0.00067099526158 -0.001447352012 0.00053068906715 0.00024872024017 -0.00067490354425 -0.00012364371922 
0.00071194594683 -0.0011957065262 -0.00013095816526 0.00030933148787 -0.00075788356741 -0.00010133545231 0.00025188508196 -0.001051716004 -6.3876210446e-05 
0.00026269923016 -0.00056747307745 2.0865445828e-05 0.00049316112824 -0.0011538636942 -0.00033204865927 0.00019861177999 -0.00096015718222 -0.00016684822442 
0.00030156401147 -0.00073158201464 -7.6765995659e-05 -0.00017163658527 -0.00065910908608 4.5452039174e-05 0.00026890545255 -0.0006728536971 -0.00012310866569 
0.000782538685 -0.0013859325159 2.4314108686e-06 0.00019871221306 -0.00054132353209 -0.00036439198774 0.00030480661631 -0.00073186906736 -8.0016527246e-05 
0.0019252180075 -0.0027470617251 -3.2455536824e-05 0.0015087913171 -0.00046001027826 0.00046660860702 -0.00030085403372 -0.00055630366572 0.00051835334011 
0.00052950253745 -0.00079230165601 0.00059117127261 0.00038898211584 -0.0019098760987 -0.00060351072396 0.0002621033326 -0.00075259438966 0.00038115322286 
0.00026614388696 -0.00052532992556 0.00054876352074 0.00019016990017 -0.00033838299373 -4.2130128389e-05 0.00016567252551 -0.00036552230332 2.7427682123e-06 
0.00015101847852 -0.00089030622357 0.00036240667174 0.0003198927556 -0.00075041259672 0.00016996926097 -0.00066273754393 -0.0010390906296 -6.7618509899e-05 
-0.00018768780528 -0.00074226690711 0.00021010861338 0.00056461968559 -0.00064016356724 6.7433041376e-05 6.2022682004e-05 -0.0012438633427 6.092712242e-05 
0.0002221218058 -0.00062620004119 -4.7271235031e-05 0.00075135648779 -0.00047068951147 -0.00010366304058 0.00012415786498 -0.00022580502505 0.0005638443898 
0.00017329982144 -0.00068877955846 0.00056381500443 0.00055280842889 -0.00092529160767 3.6373967556e-05 0.00092562426383 -0.00059152386524 -0.00089437048424 
-0.00014359628095 -0.00095135273482 -4.3840505176e-05 0.00029461649118 -0.00054207229474 7.8909334879e-05 0.00024174815228 -0.00073683516934 -1.2841962136e-05 
0.00026045696444 -0.0011695395834 -0.00049176882882 -0.00011717763853 -0.00059636755183 -0.0002822647157 5.4619145329e-05 -0.00090273842821 -3.797880309e-05 
0.00091013543612 -0.0018080194234 0.00085506084626 0.0008903740146 -0.0010951753741 -3.6752121624e-05 0.00037545620335 -0.0010501878 8.3246347868e-05 
0.00053317862914 -0.00095481966239 0.00021962536108 0.0003002863639 -0.00081913303795 -3.9406806426e-05 0.00028546399114 -0.00080898968409 4.5738703088e-05 
0.00029257339663 -0.00074739963829 -0.00012513215274 0.00040291925735 -0.00039446149002 -0.00013974520909 0.00053138905704 -0.0013084109388 -7.8450917434e-05 
3.2136467354e-05 -0.00054291597984 -0.000302335186 0.00013935246922 -0.00075966102888 0.00027731971071 -9.0486296546e-05 -0.0010961893767 0.00066642071355 
1.7535976464e-05 -0.00097754788611 -0.00033047228614 0.00045399188535 -0.0010450119738 -1.5381932413e-05 -0.00071590134467 -0.0014336155516 0.00033059562209 
0.00062008747983 -0.0010967289851 -0.00031192717236 -0.00024512992395 -0.00080992819124 -5.4803589514e-06 0.00041026743234 -0.00093617365338 6.2773403909e-05 
0.00036532574697 -0.00067728702901 -1.7259164478e-05 0.00045628678056 -0.0014449564705 6.1518117646e-06 0.00050300032771 -0.0013214807334 -0.00011015675745 
0.00074139674966 -0.0011896798995 0.00060477370043 0.00072455640127 -0.00082683258715 0.00082239922579 0.00081315958852 -0.0012698861668 2.5242917644e-05 
0.00022025594627 -0.00085054897963 0.00083289971467 0.00035000920016 -0.00073152376469 0.00011009384983 0.00042722054707 -0.00082194416374 -5.8215976302e-05 
0.0015018132503 -0.0029884647604 -0.00018635644927 0.00091355724777 -0.0019346273106 -0.0001708995375 0.00017508518644 -0.0015974238973 -0.00011662855494 
0.00020522450472 -0.0013733343318 3.3230760458e-05 0.00012487996781 -0.00072452698778 -0.00025184937572 0.00027631888918 -0.00055811117569 0.00013211478768 
8.4370970629e-05 -0.00047969390179 -3.6119714205e-05 0.00035829573745 -0.00069055671548 4.0059472549e-05 -0.00029406917256 -0.00087474169978 0.00080572653892 
0.0007822663673 -0.0014213031204 -2.0366546425e-05 0.0012667322992 -0.0016924863209 0.0007325672206 0.00016788476371 -0.00071268770371 0.00035261905243 
-0.00054736033643 -0.001094136013 5.3201460118e-05 0.0021659084101 -0.0014853042454 -0.00081273344676 -0.0002006564421 -0.00096024076644 -0.00029628925821 
-0.00034564070124 -0.00065710307585 0.00011507276027 -5.5258199692e-05 -0.0005618937993 1.8494030672e-05 -0.00020302401982 -0.0010506732263 0.0003583460731 
-0.00025653698514 -0.0011473953123 6.620062883e-05 0.00066690146921 -0.0011473404455 0.00032066237272 0.00042428675755 -0.0014501740141 0.0007995827973 
0.00070455684916 -0.0015808550977 -2.7393326764e-05 0.00056521810439 -0.0013717072202 -0.00037910655076 0.00012465361006 -0.00089548051718 0.00014217508657 
4.9141221688e-05 -0.0010973698037 -6.5131328435e-06 0.00082358630256 -0.0011548140412 8.554977982e-05 0.00032428654286 -0.001520188786 0.00021484616156 
0.00010335004645 -0.00056254297026 -6.5602447415e-05 0.00028153514232 -0.001283432631 8.0058261464e-05 0.00027150269809 -0.00072851083937 -3.7396014174e-05 
0.0001552703785 -0.0012298259565 -0.00085695986515 0.00022308274627 -0.0010565653114 -4.5253170191e-05 0.0018319825573 -0.0017877873355 -0.00011176224869 
0.00075664256637 -0.0020771189335 -0.00019843760173 4.584645696e-05 -7.2240162821e-05 0.00072004098546 -0.00031562420824 0.00094380815185 -0.00033662136324 
-1.8660637581e-05 -0.0001645992257 0.00081926184115 0.00085149896076 -0.00050066674753 0.00038188712381 0.00012083890639 -8.9783775008e-05 0.00025034465107 
0.00024596003208 -9.0762398996e-05 0.00033893724547 5.4546690333e-05 -0.00037574643898 0.0010694440475 -0.0019428081585 -0.0014263615758 0.00011154398633 
0.0010392111969 -0.00038894199056 0.00028623711105 0.00018118671727 -0.00057575009896 3.8439955486e-06 0.00069648313927 -0.001217329481 1.2278308512e-05 
-0.00045214653779 0.00040824117826 0.0006082710574 0.00037816615919 0.0001907638385 0.00089558080928 -0.00091679891843 -0.00062317621379 -0.00059163357703 
0.00031339603226 -0.00095732241375 1.7238985665e-05 0.00029534499392 0.00031837842676 -0.00016298309681 0.00087667307649 -0.00078559904518 -0.00067085758072 
0.00057305586206 -0.00073667577663 0.00085387824868 0.00069733913348 -0.00093503891779 -0.00036289796028 0.00055821689354 -4.0771612847e-05 0.00035633093138 
0.00027231567893 -0.0012149772048 -1.9783067138e-05 -2.8140714291e-05 -0.0012522139396 -2.419497147e-05 -0.00029419718933 -0.00018243069621 0.00043985717675 
0.00012063048282 -0.00054495251887 -0.00039751395755 0.00050225118262 -0.0010299864786 0.00062822909814 0.00017647767716 -0.00081366048631 1.3360884115e-05 
0.00079269420782 -0.00098722128288 0.00025002677021 0.00063875747947 -0.00082542174423 0.00010063785619 0.00020829737937 -0.00099265889497 4.5052663955e-05 
-0.00083209393772 0.00028766848197 0.00018252212485 0.00042067547197 -0.00045665747161 -0.00016091851724 -0.00027991306188 -0.0010477952584 4.3088224505e-05 
0.00012932687141 -0.00092847593091 0.0003420495948 -0.0005806097469 -0.00089234744467 0.00011072680374 0.00075398314437 -0.00096529831694 2.9658803473e-05 
-0.00022855265991 -0.00026551857428 0.00013045239367 -0.0031906799446 -0.0040222892479 0.0047924007642 0.00040941970675 -0.001020732254 0.00037840784776 
-1.5170638469e-05 -0.0012415124162 -0.00040428715263 0.0002095192825 -0.00057956735449 -0.00073106526095 0.00060321342955 -0.0021323936273 -8.785705343e-05 
0.0010011761354 -0.0017000712146 4.4690701634e-05 0.0008227479994 -0.001946224496 -0.00026850693084 0.00014392708936 -0.00086910188765 -0.00012263650691 
0.00029618211069 -0.00092670475655 0.0001281094251 0.00079470568752 -0.0014256699829 -0.00037784118073 0.00076234500971 -0.0032075289958 -0.0012082565269 
0.0011402929833 -0.0020252351572 -0.00081533261109 0.00033038471597 -0.0020536263944 -0.0011706263182 0.00022765915365 -0.00087202918448 0.00055080489743 
0.0011082431834 -0.00078234571646 0.00022537637311 0.0010586160651 -0.00042111122408 -0.0010430382264 0.00039929369619 -0.00069440498905 -3.4703403111e-05 
-0.00013033603549 -0.00094068369246 -0.00027796282979 0.00044920714037 -0.0013270386205 0.00025015360714 -0.00076977528327 -0.0018222568115 0.0002722674302 
0.00018825754864 -0.0013205377986 -5.8212645084e-05 0.00033013236488 -0.0023004155686 -5.1693572866e-05 0.00073782521266 -0.00067779047008 1.2199468412e-05 
0.00059317734505 -0.0010512383253 -0.0023909243407 -0.00018856690433 -0.001152298622 -0.00020495026214 0.00073037078866 -0.00084427029869 -0.00079212174891 
0.00084385887501 -0.0011932958712 0.00022758021799 0.00062187237408 -0.00096259069944 -1.4230771281e-06 0.00066695784983 -0.0015383101642 -0.00042774421891 
-0.00095014005822 -0.0020416673175 -0.0017180530452 1.2355028891e-05 -0.00099506509085 7.0655805522e-05 0.00073298784335 -0.0008050506447 0.0002793706227 
0.00034278022543 -0.0012020760799 -0.00013401661677 0.0017286915312 -0.0019048421743 -0.00020820821166 -0.00032793575539 -0.0011653279369 0.00044846209701 
-3.9239514266e-05 -0.0011469420434 -6.535213234e-05 0.00062322114337 -0.00061276488585 5.4091452062e-05 -0.001249439683 -0.0011781462297 -0.00036279065327 
0.00079931734182 -0.0012518410647 1.4387150713e-05 0.00023773632241 -0.0011561668759 9.6505061222e-05 0.00039826694959 -0.0013819059532 -3.8456796614e-05 
0.0058602565147 -0.0061772756812 -0.0015267148973 -5.6049705151e-05 9.4989136277e-05 -0.0002359015578 -0.00032021140451 0.00076478571352 0.00056664277405 
-0.00035497959631 0.00031750516494 0.00013357257457 -0.00013405247414 -0.0013177538981 -0.00014446794023 -0.00027405419989 0.00068732243715 0.00062509219867 
-0.00067124762895 -0.00072217952805 -0.00011747917556 0.00069160270672 -0.00052210746973 -3.7465460518e-05 -0.00021498356421 -5.139051474e-05 0.0010514968152 
0.00025371260717 -0.00040206339101 -0.00013514085098 -0.00011674857225 -0.00040724238659 -0.00045919036117 0.00064757109893 -0.00070753737242 -5.8746326088e-05 
0.0020786459687 0.0012251990144 0.00035241192426 -0.00047461808934 -0.0010091158875 -0.00012450732168 -0.0005539916955 -0.0011256399815 -0.00098712057605 
-0.00031711311496 -0.00053696960057 -0.00050260278366 0.00071777043017 -0.0006889402693 -0.00017135864796 -0.00010151304236 -0.0004673385714 -0.00036484412904 
0.00083830694496 -0.00080974989562 -2.6968944739e-05 0.0009046492325 -0.00073200686362 -0.0002365750057 -0.0086173345417 0.0026231462584 -0.021886353551 
-0.00013461303843 0.00010666446794 -2.1737286066e-05 0.00048564054231 -0.0013332170302 -5.2495894481e-05 -0.00044764127343 -0.0011171266128 2.1828507321e-05 
0.00018683815025 -0.00014485841827 0.00037367541951 0.00058050776356 -0.0011115338417 -0.00058806381178 0.00024934348471 -0.0013404948254 0.00063249171376 
0.00026303945169 -0.00072621129738 -3.9345192602e-07 -0.00013130152956 -0.00082417821841 -4.3294915391e-06 6.8757345062e-05 -0.00053434388551 -9.9567654632e-06 
0.00019265466831 -0.00062892297787 0.00060411981649 0.00071992162047 -0.00061370208691 -6.0834161979e-05 0.00023099313385 -0.00054148598401 0.00011243247381 
0.00073535250489 -0.00099679579627 0.00016282537387 0.00038406422137 -0.0016395664949 0.00044378700231 0.00068432969655 -0.0014062413963 -0.00046376034395 
-2.8657564098e-06 -0.0012799456167 0.00032657857182 0.00026358161308 -0.00061934209378 -0.00018832336045 2.5053562208e-05 -0.00071464084114 6.1833541497e-05 
0.00044343327672 -0.00090123859615 0.00038656358395 0.00060294944151 -0.0010204396376 4.7873814378e-05 0.0005667853799 -0.0013041392137 -2.6045757839e-05 
-0.00046088254109 -0.0013015021738 -0.00022285420124 0.00024083824752 -0.0015624781657 0.0005995713163 0.00054512435134 -0.0009476901329 -0.00013149642187 
0.00041373407477 -0.0014716280537 -0.00023669732225 0.00049030776928 6.9207243698e-05 0.00026284434209 -0.00064089127757 -0.0014321452101 -1.0694719548e-05 
-6.8820783382e-05 -0.0012727763089 0.00057982527555 0.00024587972872 -0.0011447483641 1.4166034931e-05 0.00012946134529 -0.00093027031593 4.6966673174e-05 
0.00080009229345 -0.0010160605178 0.00010657956985 0.00039805579436 -0.00090208906027 -0.00049022076237 0.00036953140268 -0.0011438670762 -0.0006016371218 
0.00050300825925 -0.0011737155963 -0.00013798035865 0.0005425124723 -0.0012161851689 7.5322308209e-05 0.0011540702455 -0.0013185801596 1.2693566517e-05 
-0.00010870038874 -0.0011021200779 6.883308067e-05 -0.00024183741723 -0.0017525893436 0.00086009075914 -0.00015504352123 -0.0018262510696 -4.6287744818e-05 
0.00013544506256 -0.00066539629948 -8.546461849e-06 0.00022175099509 -0.0011269502279 -0.0005336715459 0.00026464534719 -0.0011454479533 2.5395329392e-05 
0.0010608804998 -0.0014064800886 -0.00030166039193 0.0007998119602 -0.0012586951742 -0.00018523062682 0.00080604010709 -0.00095994788518 3.0858480756e-05 
0.00030598889634 -0.0011158581015 8.2570473593e-05 0.00030479706241 -0.00099529244837 0.00023092453401 0.00059871978426 -0.001365219081 -0.00016293148844 
0.00042645911365 -0.0012261264674 1.7779064337e-05 0.0011249259027 -0.0010089739118 -3.9253355707e-05 0.00030750355664 -0.0011152411007 -4.2272567924e-06 
-0.00075197717319 -0.0015172838384 -6.5629025405e-05 -0.00094269254995 -0.0021367919367 -0.0012500649426 -0.00019725615177 -0.0010650819978 9.3921644699e-05 
0.00038977250031 -0.0013464480183 -0.00026653086093 0.00075365596576 -0.0011688791554 0.00036024449158 0.00033275352481 -0.0013081016154 0.00030656046398 
0.00017810614095 -0.0013612032551 7.5428130194e-05 0.0005584812045 -0.0013883838729 8.4910737183e-06 0.00045718958822 -0.0013982298003 -0.00037001359878 
0.0009618103149 -0.00067236741523 4.7326453378e-05 0.00051868044032 -0.00094499402584 8.1164364933e-05 0.00025733206298 -0.00074134042013 0.00055787574384 
0.00036206932318 0.00036142862491 0.00017164808011 -0.00042459408138 -0.0002830659711 0.0001905736478 -0.00029311984156 0.00079965686043 0.0007697818323 
-0.00021283199045 -0.00079652323256 0.0011188746558 0.00049452666379 -0.0012352025828 1.5401614911e-05 0.0010434214274 4.5259292685e-05 0.00142017585 
0.00020114675891 -0.00022949612493 0.001298403354 0.00019087621901 -0.00038490592017 -0.00050420815793 0.00048039988597 0.001176721965 -0.001131872858 
-0.00011707076223 0.00045935147919 -6.5684795537e-05 -0.0010682934864 0.00036856800483 -0.0011695531541 0.0005344573665 -0.00031903058473 1.1353952702e-05 
-1.2678515079e-05 -5.5131215622e-05 -0.0005877412364 -0.00017678963066 -0.0013149298462 -0.00047333306674 0.0016335956214 -0.0010170894586 0.0010994635494 
-6.13079382e-05 -0.00019461623035 -5.2936790605e-06 0.00093030945477 -0.00014173930406 -0.0005735306427 -0.00027277615473 4.2032266394e-05 0.00043768157513 
0.00070622029444 -0.00088388692695 -0.0005930272317 0.00056663981334 -0.00057975336626 -0.00017000563971 0.00022922344402 0.00011543336903 0.00088642325389 
-0.00044152660001 -0.00030662704253 -0.00020962105842 0.00026734571776 -0.00049406148658 2.9299228753e-05 -0.00013531815685 -0.00091701321294 -0.00069882662305 
-0.00010004305909 0.00058768885692 -0.00035729120292 -5.811233411e-06 -0.00081599536331 0.00098910178575 -0.00064572016993 -0.00040296937726 0.00028800717217 
-0.00022523283602 -0.0012562404149 0.00025165671706 0.00039907915434 -0.00057496401735 0.0010089258996 0.0014255567014 -0.00068177748161 0.00098203764313 
0.0006680265041 -0.00058241690118 1.6950768071e-05 0.00053777151371 -2.1024858075e-05 0.00016436444652 -0.00034219408694 -0.0015537784052 0.00033222302184 
0.00043074977282 0.00037104799991 -0.0003742767971 0.00039225626612 -0.00010584852152 4.700158771e-06 0.00041800608463 -0.0010316492231 0.00022136361379 
-0.00024244808933 -0.00078259865894 -0.00016458004514 0.00068303367344 -0.0013094379966 0.00044792155388 0.00018906431812 -0.00042520876391 0.00095406161757 
0.00021223887894 -0.00039520753434 -8.3928204352e-06 0.00018216266706 -0.00038789210717 -0.00057293567594 0.00029653050971 -0.0010657956781 7.0478914302e-06 
-0.00017292921722 -0.00053064188839 3.2642199046e-05 0.00039585567193 -0.0012713118003 0.00055733459151 -0.0001572742011 -0.0011838408398 -7.298318339e-05 
0.00028657112946 -0.0013390731331 0.0001483646713 -0.00039156286267 -0.0012410229116 7.2364664623e-05 -0.0001687025439 -0.00091495111397 0.00011943996849 
0.00045753170818 -0.0012826198877 0.00021841607722 0.00059392705365 -0.0017344858762 0.00053578028792 0.00070720177173 -0.0012393111567 0.0007838561932 
0.00040221489852 -0.00080878994542 9.1333412165e-06 -1.2010678572e-05 -0.00090406454456 7.7512977258e-05 0.00038610790847 -0.0011343893753 3.5076585302e-05 
4.7708559821e-06 -0.0010239529945 -0.00054599420939 0.00039047710452 -0.001520544086 -0.00031650032809 0.00036362871667 -0.00078395040224 -0.00029457384314 
-0.00037964211845 -0.001443259831 -3.5425356993e-05 -0.00052924080832 -0.0018154828807 0.0009195795696 0.00049809927137 -0.00082839841872 -0.00037461120587 
0.00010499123401 -0.00089463620754 0.00029295441905 4.1578881935e-05 -0.00076706713244 2.0981147492e-05 0.00014088752091 -0.0012499780611 5.8914181651e-05 
0.00062180266061 -0.001247877906 -0.00015113661577 0.00063011912608 -0.0016761984694 1.7116309716e-05 -7.2421810576e-05 -0.0021393252245 0.00017281866847 
0.00023587378715 -0.00091381313073 0.00040723750469 0.00013555223745 -0.00051751112563 -0.00093607265934 0.00062985297748 -0.001092859888 -0.00018684585814 
0.00035499747134 -0.00099809740281 2.1471623056e-05 0.00059248063139 -0.0014302717329 0.00012256900894 0.00039683664956 -0.0010640280556 -0.00011684189684 
0.00030584767511 -0.0012183637096 0.00057372963282 0.00066127652753 -0.0012125252939 3.0228682151e-05 0.00017188363397 -0.0016831947558 -0.00025456465133 
0.00024678149528 -0.001587826423 -7.3872194109e-05 0.0022012397668 -0.0010322430884 0.00072913793485 -7.4796527775e-05 -0.0020898303647 -0.00021512878545 
1.0082683559e-05 -0.001468252898 1.6621124428e-06 0.00039695561717 -0.0011057008704 -0.00010407090058 0.00027933579793 -0.0010360250773 0.0002221705273 
0.00035236074272 -0.0012027842933 9.7307752405e-05 0.00018967265281 -0.0010348545682 -0.00040457510388 0.00018081880642 -0.00088851882225 4.0569256073e-05 