# vtk DataFile Version 4.1
vtk output
ASCII
DATASET UNSTRUCTURED_GRID
POINTS 1274 float
0.512226 0.555689 0.0379507 0.469141 0.652105 0.105433 0.487311 0.599374 0.268458 
0.494381 0.588434 0.0994101 0.423217 0.757059 0.0323142 0.424088 0.769344 0.119169 
0.475224 0.638254 0.21308 0.459733 0.671391 0.268649 0.393219 0.846832 0.0593537 
0.398018 0.813695 0.164215 0.445307 0.700802 0.215205 0.432135 0.740454 0.265756 
0.362249 0.90422 0.03197 0.343044 0.969925 0.0515664 0.380858 0.879547 0.146347 
0.394291 0.845647 0.231909 0.344786 0.958914 0.260017 0.313299 1.04083 0.0387199 
0.389506 0.915403 0.0867927 0.446957 0.900024 0.110199 0.331651 0.997614 0.129797 
0.408647 0.916342 0.218397 0.31 1.03874 0.265121 0.35161 0.930459 0.187862 
0.280861 1.10367 0.0483478 0.327615 0.988689 0.200471 0.286185 1.10925 0.260298 
0.257084 1.16407 0.0336643 0.356339 1.11726 0.105054 0.30141 1.07005 0.109594 
0.289575 1.25376 0.0382188 0.302465 1.04636 0.200315 0.283114 1.10159 0.172613 
0.332582 1.25702 0.0929344 0.383855 1.1594 0.0371714 0.275135 1.14947 0.110539 
0.420862 1.15136 0.106642 0.26026 1.15159 0.20877 0.339842 1.10816 0.211454 
0.218386 1.25687 0.0332147 0.319151 1.18771 0.0546284 0.319358 1.15793 0.173779 
0.244296 1.20011 0.164783 0.287539 1.18396 0.26484 0.238636 1.22318 0.0939321 
0.371033 1.23334 0.0356631 0.236269 1.23091 0.236612 0.215271 1.25775 0.149869 
0.540856 0.4708 0.0302096 0.611505 0.295721 0.094249 0.595314 0.359282 0.120799 
0.596765 0.347965 0.196971 0.575918 0.389318 0.266497 0.609798 0.315098 0.261533 
0.540446 0.470621 0.209902 0.508321 0.5588 0.219364 0.603291 0.329148 0.0358989 
0.566565 0.41779 0.159266 0.483291 0.62578 0.0390674 0.609937 0.476754 0.0480866 
0.545742 0.475564 0.0985149 0.549357 0.448654 0.268473 0.564956 0.572996 0.262774 
0.527174 0.513045 0.159519 0.550172 0.669768 0.0308582 0.445055 0.712286 0.0782752 
0.517323 0.698632 0.105985 0.470948 0.754703 0.178145 0.550677 0.548746 0.100737 
0.523329 0.659845 0.266703 0.445983 0.697819 0.146444 0.414355 0.779017 0.214288 
0.500822 0.682163 0.170548 0.553866 0.578157 0.168528 0.493731 0.781852 0.0918108 
0.534838 0.762059 0.146162 0.457868 0.816217 0.0363746 0.508222 0.725855 0.0397546 
0.484045 0.819126 0.150696 0.436161 0.836757 0.113323 0.363979 0.89555 0.269731 
0.498926 0.770603 0.260787 0.538519 0.618802 0.219166 0.562952 0.748889 0.220297 
0.46742 0.816914 0.213527 0.506166 0.707476 0.227029 0.459795 0.89089 0.040195 
0.520416 0.855419 0.0356995 0.53517 0.792639 0.0326227 0.454125 0.877157 0.177785 
0.494464 0.851575 0.0956056 0.465424 0.87138 0.260664 0.438313 0.805319 0.269011 
0.416374 0.952944 0.0373623 0.373328 1.091 0.0325886 0.465474 1.0059 0.0331286 
0.399912 0.998329 0.0946342 0.4148 0.949483 0.150391 0.46745 0.965312 0.0911508 
0.485416 0.942392 0.26155 0.419543 0.97377 0.26148 0.534884 0.984901 0.2689 
0.459166 0.954055 0.202947 0.383372 1.02593 0.0323973 0.365255 1.05651 0.0851817 
0.463388 1.03327 0.0903968 0.36246 1.06424 0.158481 0.395093 1.00581 0.196902 
0.441404 1.05203 0.264238 0.376798 1.03018 0.267487 0.483377 1.00506 0.235898 
0.45597 1.13774 0.0385399 0.470371 1.08424 0.123239 0.426965 1.04326 0.138842 
0.361135 1.09155 0.269156 0.525302 1.18037 0.176158 0.490034 1.10389 0.267817 
0.407929 1.08934 0.21313 0.429585 1.1346 0.264219 0.445295 1.12176 0.166714 
0.359042 1.16166 0.260112 0.510359 1.18828 0.0382198 0.49816 1.14798 0.118739 
0.435927 1.20752 0.0341935 0.369155 1.20321 0.101287 0.381008 1.13448 0.166503 
0.338962 1.238 0.260951 0.453066 1.16898 0.207638 0.40212 1.20779 0.220867 
0.469321 1.19178 0.266121 0.486776 1.25626 0.0362705 0.312176 1.21359 0.137405 
0.45989 1.25024 0.226327 0.300196 1.21407 0.204106 0.473553 1.2138 0.169783 
0.372569 1.23087 0.163541 0.639646 0.231374 0.179026 0.564262 0.41246 0.0315356 
0.659989 0.193056 0.0559417 0.661509 0.287219 0.212732 0.640015 0.241482 0.26351 
0.669008 0.174294 0.206908 0.642865 0.223143 0.115213 0.631786 0.407118 0.036345 
0.592495 0.423885 0.0895296 0.526818 0.510295 0.265843 0.604863 0.488067 0.262773 
0.617413 0.291019 0.159013 0.638957 0.377697 0.245639 0.613654 0.460726 0.136961 
0.58725 0.547529 0.037517 0.660368 0.42415 0.101857 0.533786 0.637075 0.132106 
0.603997 0.529199 0.146559 0.575053 0.525539 0.211616 0.592238 0.433997 0.22051 
0.613315 0.624776 0.2663 0.603516 0.719224 0.0390305 0.555226 0.611082 0.0648151 
0.568956 0.735255 0.09849 0.566135 0.699008 0.157395 0.599776 0.710929 0.268227 
0.590792 0.635232 0.174254 0.643318 0.641899 0.210902 0.572074 0.672884 0.224389 
0.596575 0.759754 0.159899 0.586705 0.666996 0.0960575 0.639413 0.788553 0.039031 
0.561348 0.797926 0.0908622 0.541934 0.814906 0.189852 0.545106 0.832689 0.261834 
0.615899 0.775411 0.26525 0.515917 0.873899 0.210731 0.625171 0.70992 0.200693 
0.600507 0.822702 0.221599 0.584832 0.838083 0.0355198 0.560685 0.861865 0.0930686 
0.565636 0.91085 0.0397004 0.503537 0.944815 0.0315429 0.552003 0.910101 0.260436 
0.598077 0.9678 0.265549 0.528269 0.863511 0.146508 0.505656 0.924644 0.172921 
0.534939 1.00444 0.0510975 0.522453 0.917482 0.10671 0.473543 1.05999 0.189123 
0.468159 0.996278 0.154826 0.537108 0.989394 0.138354 0.518034 1.04754 0.269179 
0.570943 0.945329 0.192415 0.436316 1.06721 0.0347793 0.539147 1.12544 0.0335715 
0.573007 1.06563 0.0351734 0.503933 1.06624 0.0328709 0.552174 1.10822 0.0954512 
0.522849 1.05073 0.104715 0.543213 1.00919 0.209312 0.502848 1.12622 0.205289 
0.53812 1.23473 0.0890152 0.573828 1.21194 0.0322878 0.563263 1.17762 0.123196 
0.522971 1.09229 0.152397 0.604601 1.08785 0.268671 0.539576 1.2387 0.159075 
0.533976 1.21285 0.23806 0.56602 1.13119 0.180552 0.557566 1.07373 0.214483 
0.553746 1.13778 0.259467 0.639406 1.20779 0.0431808 0.62159 1.21035 0.110561 
0.464361 1.21564 0.100672 0.64737 1.23675 0.221407 0.595062 1.19972 0.186359 
0.762742 1.18189 0.206767 0.679011 0.130813 0.0404933 0.693285 0.119572 0.11287 
0.721563 0.032202 0.192837 0.68203 0.134211 0.265518 0.697965 0.0942079 0.181496 
0.636976 0.262599 0.0387331 0.695216 0.315594 0.0396742 0.702527 0.22508 0.149901 
0.704236 0.266793 0.267353 0.640306 0.406523 0.174521 0.695036 0.199954 0.26745 
0.678387 0.327481 0.266699 0.662655 0.336443 0.137763 0.680328 0.458793 0.0421163 
0.65901 0.495322 0.097118 0.652232 0.357503 0.0777126 0.685812 0.467161 0.158262 
0.649225 0.462199 0.216855 0.6814 0.278581 0.104493 0.727937 0.412487 0.195279 
0.690609 0.35372 0.201177 0.611454 0.645551 0.0351627 0.661848 0.525615 0.0349398 
0.63517 0.558331 0.0889927 0.595224 0.600062 0.120062 0.647835 0.607908 0.156642 
0.663765 0.684112 0.262133 0.637857 0.54685 0.269081 0.68683 0.582793 0.207156 
0.61676 0.578904 0.208583 0.672509 0.54749 0.150013 0.677356 0.516631 0.206192 
0.628508 0.715791 0.122559 0.658075 0.655453 0.0913563 0.696992 0.572929 0.0973116 
0.708296 0.627872 0.138541 0.717232 0.647596 0.206879 0.660765 0.823757 0.268702 
0.664898 0.672442 0.15944 0.623982 0.803025 0.116822 0.647428 0.877123 0.0391 
0.689609 0.761836 0.0795488 0.707977 0.703184 0.0848128 0.68007 0.763247 0.149055 
0.636926 0.776162 0.203043 0.696737 0.716026 0.204813 0.613482 0.869164 0.265677 
0.582961 0.872559 0.181718 0.614818 0.969986 0.037251 0.668609 0.98527 0.0763915 
0.629685 0.869164 0.106133 0.643568 0.927484 0.0887475 0.58683 0.908778 0.125933 
0.609959 0.967907 0.138998 0.63434 0.985123 0.209693 0.676654 0.849816 0.147958 
0.635878 0.923109 0.23373 0.643772 0.866276 0.207185 0.633002 0.916822 0.169125 
0.630453 1.10779 0.0300648 0.641958 1.04052 0.0401257 0.694429 1.09289 0.0358785 
0.574392 0.957274 0.0910577 0.594055 1.02157 0.095567 0.667531 1.04283 0.115806 
0.578007 1.03095 0.260452 0.613664 1.02592 0.161776 0.67176 1.03187 0.184264 
0.616562 1.09018 0.0911786 0.621928 1.14381 0.138689 0.696832 1.1658 0.0370848 
0.596013 1.15436 0.0646431 0.582462 1.07873 0.146851 0.624014 1.05639 0.217105 
0.741261 1.13246 0.083506 0.636001 1.13322 0.223594 0.661053 1.09294 0.167511 
0.603662 1.19617 0.263609 0.749167 1.21312 0.033559 0.790579 1.18292 0.100877 
0.689482 1.16989 0.106131 0.672656 1.19896 0.168354 0.677296 1.18779 0.260468 
0.7221 0.0831516 0.0341644 0.753989 0.121941 0.0764775 0.718125 0.0491746 0.117824 
0.78399 0.0581262 0.125645 0.723354 0.0417162 0.262519 0.735118 0.105289 0.242594 
0.707772 0.242069 0.0350586 0.751101 0.18192 0.039199 0.768635 0.265829 0.0304524 
0.737098 0.177846 0.110553 0.728042 0.156568 0.172778 0.755851 0.16727 0.2634 
0.774157 0.230314 0.155675 0.769661 0.243589 0.261977 0.731357 0.20978 0.212708 
0.702935 0.391205 0.0363959 0.764809 0.327566 0.0314755 0.720266 0.333421 0.103311 
0.747132 0.252168 0.0928256 0.732448 0.418847 0.0925066 0.764459 0.374115 0.12675 
0.703576 0.387205 0.140881 0.747816 0.320381 0.263464 0.734751 0.28181 0.198206 
0.697021 0.420057 0.260496 0.726604 0.513729 0.0863199 0.752619 0.463578 0.0378107 
0.797236 0.485024 0.0863339 0.754601 0.46907 0.134317 0.789795 0.419695 0.169961 
0.674639 0.494182 0.266634 0.804004 0.511518 0.264171 0.77372 0.401428 0.260577 
0.740529 0.48106 0.246951 0.718215 0.54852 0.263651 0.669351 0.599178 0.0391266 
0.694537 0.664753 0.0315327 0.736904 0.53356 0.175163 0.761134 0.581725 0.121371 
0.678715 0.613891 0.2674 0.752515 0.585293 0.216941 0.743288 0.622233 0.267491 
0.673491 0.724019 0.0329056 0.747799 0.748947 0.111631 0.758434 0.69246 0.0384652 
0.727845 0.755018 0.0312092 0.748614 0.656341 0.0969482 0.740018 0.693766 0.261127 
0.687702 0.817359 0.208776 0.726534 0.692667 0.14627 0.751287 0.745293 0.17844 
0.693986 0.744951 0.269539 0.702041 0.934316 0.0399816 0.717188 0.853645 0.0346116 
0.681351 0.825435 0.0845334 0.69412 0.888628 0.0955638 0.739337 0.810181 0.159479 
0.738655 0.839068 0.260086 0.733848 0.776478 0.228959 0.681309 0.88615 0.265524 
0.713035 0.877903 0.206634 0.687962 0.951294 0.268911 0.717668 1.02095 0.0398203 
0.725508 1.06929 0.0897189 0.727124 0.953321 0.107551 0.689458 0.948049 0.205738 
0.672066 0.975942 0.138693 0.693402 0.918519 0.150747 0.730357 1.00971 0.155543 
[...]
POINT_DATA 1274
FIELD FieldData 10
VELOCITY 3 1274 double
0.00063725920076 -0.00071069345162 -0.00033834131606 -0.00011159344269 -0.00083168871414 -0.00060852449295 0.00027662402699 -0.00059660695658 1.9961441985e-05 
0.00036150768001 -0.0017681886099 0.0017468656963 0.00028224411735 -0.00097340367228 -0.00018758939526 0.00040798228779 -0.00056913929294 0.00011204571496 
0.00024453901648 -0.0005793745948 -0.00012389484576 -0.00062167629997 -0.0011171346254 3.3250507001e-07 0.00062617384686 -0.0014517404271 -0.00036060528488 
0.000160235223 -0.0007485115452 0.00039699818289 0.00042219512356 -0.00096880485996 -0.00014791150054 0.00041763900674 -0.0011032914871 1.9691804631e-05 
0.00051692851688 -0.0012776770582 1.6627156385e-05 0.00059772066796 -0.0013718656884 0.00016527983282 0.00032569438859 -0.00074223817313 7.3951514119e-05 
0.0003952983169 -0.00095369214518 0.00012381298853 0.0003764647813 -0.00087290563969 6.6137787078e-05 0.00055492005424 -0.0013797017521 1.0023778681e-05 
0.0010069160697 -0.0013642350416 -0.00021423844901 0.0007913709477 -0.00073472037418 -0.00010369091186 0.00042719551192 -0.0010342835391 -1.6351852849e-05 
0.00017612805929 -0.00086590238281 -0.00012876034736 0.00023042300854 -0.00058855355683 0.00021391813827 0.0002754384608 -0.00065703207068 -9.3151862901e-05 
0.0005870160268 -0.0014145662802 0.00022535607774 0.00023314691117 -0.00073191809891 0.00016532180179 0.00025298234524 -0.00059057287971 -2.9143805144e-05 
0.0004655447456 -0.0010909997328 -1.2637590706e-05 0.00080857386276 -0.0014349624763 -0.00058020652771 0.0003482932123 -0.00089319371356 -0.00057364804774 
0.00017786018092 -0.0014057225783 1.32115841e-05 0.00034153759909 -0.00071038702694 -6.0045491684e-05 0.00031711622393 -0.00082427917062 -0.00023469116492 
0.00062280490066 -0.0013784643092 -0.00034744750323 0.00082548208414 -0.0011653136054 0.00036656700985 0.00039039135235 -0.00085343832009 -0.00015617072487 
0.00061196918832 -0.0013418058591 -2.5102467115e-05 0.0003446317433 -0.00082828750169 -0.00024360747628 0.00012321115217 -0.0010232942837 -0.00016154240235 
0.00020555794965 -0.00050573198311 -6.1614794794e-07 0.00061959977512 -0.0013053592684 -0.00035219886656 0.0001828653992 -0.00094034491388 -4.7299549081e-05 
0.00033514703289 -0.00084337940687 -0.00025751354299 -0.00012169564638 -0.00058648339443 -5.7625988447e-06 0.00034159957647 -0.00088776061025 -0.00023168852847 
0.00070283938934 -0.0012468626044 1.5880654999e-05 0.0001765540978 -0.00043795537503 -0.0002151330206 0.00035687193971 -0.00082683167412 -0.00026783141163 
0.0042987453579 -0.0045482905734 -3.939050606e-05 0.0014283833458 -0.00058986105997 0.00044138069569 -0.00032192009899 -0.00057549551599 0.00052394768775 
0.00054829121524 -0.00076278534348 0.00051164701842 0.00031261055822 -0.0016206167932 -0.00072239353154 0.00035206867721 -0.0010120209407 0.00025993562036 
0.00023391809115 -0.00050182679796 0.000575400855 9.8924543113e-05 -0.00032187795453 -2.6493869155e-05 0.000132417058 -0.00028605467041 3.3368148858e-06 
0.00034090655015 -0.00075172681715 0.00018455789882 0.00040923375864 -0.0009968435478 -0.0004453164323 -0.00057006341509 -0.0012690808892 -0.00018719658392 
-0.00019345255729 -0.00076115470029 0.00042268520105 0.00053712507916 -0.00055543768479 6.9407265529e-05 5.5299540895e-05 -0.0010330385855 -3.7340614116e-05 
0.0001654756027 -0.00060635640156 -4.9108572038e-05 0.0007903120011 -0.00066797168578 -6.485981283e-05 0.00016419027029 -0.00030915785422 0.00068773660024 
0.00033129605186 -0.00073766786403 0.00078957138586 0.00052371974375 -0.00087339944126 0.00012922266676 0.00071156973873 -0.00051204741781 -0.00033259301324 
-0.00084677867747 -0.0013544627943 1.8510343739e-05 0.00035799681496 -0.00065088902638 -0.00022395057268 0.00033939148396 -0.00090475433234 0.00015138679706 
8.0117811742e-05 -0.00089889016179 -0.00041153848595 0.00051032958894 -0.00073566435543 -4.3882623547e-05 0.00026782202962 -0.0010604624981 2.7977146625e-05 
0.00093472440347 -0.0020002136083 0.0010026011131 0.00092103869532 -0.0012589850105 -4.6521504577e-05 0.00037123880215 -0.0012634076988 0.00011855474314 
0.00071048845541 -0.001010248046 0.000125935133 0.00028389177215 -0.00057244341604 -0.00015634207765 0.00035840811486 -0.00088349047331 -2.6434673669e-05 
0.00035974788447 -0.00087767567495 -9.6618499033e-05 0.00068574902502 -0.00037551991831 -0.0002759910131 0.00050527121357 -0.0012916105905 -4.3816581774e-05 
-5.3474553981e-05 -0.00057454004076 -0.00036434548212 0.00037596611291 -0.00083746299348 5.0813242713e-05 0.00025702654674 -0.0011655898141 0.00026638127192 
0.00011648022097 -0.001346392808 -0.00094054974451 0.00038890585195 -0.0013936919811 -5.6066779227e-06 -0.00018659920245 -0.0010866697227 -0.00012049417139 
0.00078738465855 -0.0012751631193 -0.0001739573552 -0.00034670474926 -0.0009328031981 3.4998248014e-05 0.00036866957132 -0.0010962390586 3.2891390889e-05 
0.00074661687713 -0.00085730521109 -0.00014627748499 0.00023281715758 -0.0010455890205 -2.1970906017e-05 0.00034978728213 -0.00087908333693 0.0001312838355 
0.00033081617575 -0.0011781321864 0.00049524210055 0.0010418125163 -0.00097223343991 0.00014265199226 0.00095044083898 -0.00055474251948 -6.6776573207e-05 
-5.4060297564e-05 -0.0010143095528 0.00073059440689 -0.00015313646383 -0.0010558060587 0.00016504709656 0.00024354925421 -0.001004320241 -6.4512557279e-05 
0.00082871444613 -0.0017860685334 0.00029522080338 0.00078053080624 -0.0016072221879 5.8662769745e-05 0.00020795225438 -0.0015409783804 -0.00039310865766 
0.00041917774414 -0.00065778867956 -9.1801856686e-05 0.00016536212505 -0.00095411897441 7.8996514979e-06 0.00035203116825 -0.00086680439504 -9.1244831148e-05 
0.00010003588437 -0.00053358049868 1.6550638244e-05 0.00025825158603 -0.00070812146641 -0.00029938865364 -0.00041794606704 -0.0011023761652 0.00069310351354 
0.00092309928965 -0.001045657418 -1.5509366959e-05 -3.89268115e-05 -0.00049660459099 -0.00039294030543 0.0003644238285 -0.0008315610632 -7.5033007846e-05 
-0.00022023012793 -0.00087941808743 1.7367773357e-05 0.0011162301769 -0.0014517217686 -0.00084805407162 -0.00048454294736 -0.0014396738688 -9.8497339473e-05 
-0.00012012449409 -0.00087730393397 0.00011622332938 -8.9118597694e-05 -0.00062708401397 -5.891846201e-05 0.0002150249944 -0.0011226205435 0.00028172506433 
-0.00016302722621 -0.00087236213677 5.2260492281e-05 0.001150696414 -0.0014185656222 0.00034370975815 0.00056698686545 -0.00065656225865 0.00119350445 
0.00073518181667 -0.0011324182619 -1.9695211393e-05 0.0006159315823 -0.0013875620569 -0.00020544698341 0.00019803309677 -0.00096004466128 3.9807678273e-05 
-0.00012481057373 -0.00085858850413 -1.9503209152e-05 0.00029802445119 -0.00090328504358 1.2429978529e-05 0.00036022945863 -0.0011230587556 0.00031441332058 
-2.5746460853e-06 -0.00073812259744 -5.4500616987e-07 0.0010735221462 -0.0014565300016 2.5357838856e-05 0.00036783064108 -0.000982963343 -4.3057327898e-05 
0.00030373188527 -0.00090906777192 -0.00051308000075 0.00012006698091 -0.00088926987342 -0.00012024964507 0.0010522156667 -0.0014366865362 -2.2953986804e-05 
0.00056328920553 -0.0017269400608 -4.5111967185e-05 -5.2337846943e-05 5.1184142143e-05 0.00081067250728 -0.00029078593011 0.00086705547673 -0.00028363857454 
-3.5495438297e-05 -0.00011360247722 0.00078230591623 0.0005999095225 -0.00051883135347 4.9932612855e-06 -1.6175348861e-05 0.00025310542206 0.00072308064573 
0.00015933661502 -3.3511896161e-05 0.00025325874693 4.1353211231e-05 -0.00029647301124 0.0010065280033 -0.001852618219 -0.0015862199571 8.3390673151e-05 
0.00099610991355 -0.00027150809464 0.00012374768086 0.00015683667369 -0.00049113714028 -3.4813551742e-05 0.00076790113418 -0.0011844364751 -7.2112171994e-05 
-0.00039988522529 -3.5807870012e-05 0.00053397749299 0.00029842465806 -0.00016100253453 0.0014370372088 -0.00086999012953 -0.00059550649068 -0.00053338904326 
0.00053425476469 -0.0010623028933 -3.2524871878e-05 0.00031296054387 2.8276836243e-06 -9.8324569402e-05 0.00071429356503 -0.00094271148348 -0.00036955521957 
0.0006729731525 -0.00093139155082 0.0010160770494 0.0005968361924 -0.0010030282303 -0.00022031611868 0.00068800994366 -0.00049809289035 0.00012098179539 
0.00016713336124 -0.0012544984838 -4.8963773758e-05 0.00034784270705 -0.0020263159379 0.00012544711214 -0.00018306514925 -0.00047275457628 0.00038825830933 
0.00017654299903 -0.00010806405917 -0.00060557620189 0.00047127265244 -0.0011443676208 6.8525721954e-05 -7.5993878097e-06 -0.0010400114654 9.5064363698e-05 
0.00070678566346 -0.00092223179094 1.3206397928e-05 0.00055277070124 -0.00091729401485 -7.3673695599e-06 -0.00034698922433 -0.00085601638708 -6.1026735766e-05 
-0.00085426498747 0.00010908183397 0.00043049542113 0.00033392016721 -0.00096300054194 -0.00022992974476 -0.00026722119754 -0.001276166251 1.9945855796e-05 
0.00031797525777 -0.00085291737929 6.2706531625e-05 -0.00068263816074 -0.00074045932783 -0.00010713624679 6.0582516928e-05 -0.00087555912695 -7.0523332691e-05 
-0.00017461792452 -0.00042579657523 3.2522205241e-05 -0.00034912341541 -0.0010040066656 0.00016277423048 0.00011909518281 -0.0011456621867 0.000468206035 
-0.00015853562385 -0.0015804259373 -0.00027159699857 0.00019332976018 -0.00085081037119 -0.00045307609347 0.00011321185035 -0.0020100514727 -6.6837225057e-05 
0.00031648111466 -0.0017325133971 6.789121266e-05 0.00031999081169 -0.0013759990613 -6.52013491e-05 0.00013894090418 -0.00093159137899 -5.6785975695e-05 
0.00025532562706 -0.0010352446185 0.00013057310541 0.00033264684701 -0.00082875006754 -8.6442526815e-05 5.6876761872e-05 -0.0014095516063 -0.0011505587243 
0.00051236012227 -0.0014218131012 0.00011877196611 0.00010441952661 -0.0018701704338 -0.0010907871095 0.00017992160653 -0.0011178753645 0.00022114770371 
0.00075416391281 -0.0010637512742 7.1329489234e-05 0.00067192819557 -0.00075225062389 -0.00079858564888 0.00029037350728 -0.0010782121456 1.0399871385e-05 
-0.00020918583973 -0.00086944016945 -5.5521687047e-05 0.00018589736616 -0.00082705244505 -0.00021834747102 -0.0055819972774 -0.0044742891591 1.7466376662e-05 
0.00012153990133 -0.0011833078208 -1.7792592043e-05 0.00028463994599 -0.0015093194719 4.8683908178e-06 0.00014305014577 -0.00047335120253 -7.7233642092e-05 
0.00041731911814 -0.00072870033858 -0.00043802491546 -0.00040915447989 -0.0010167328373 -0.00029585327185 0.00029261200104 -0.0010269487474 -0.00060368377746 
0.00062817661413 -0.0010599807541 0.00021673608082 0.00071665386343 -0.00038107863094 -1.6363310326e-05 0.00083810756422 -0.0011045446498 5.3370708143e-05 
-0.00013214298954 -0.0013639927461 0.00013293983482 0.00074683942873 -0.0012356465068 -8.0077541908e-06 0.00080281793667 -0.0010756011415 0.00017811460085 
0.00015898505526 -0.0020220431106 -0.00044468916588 0.00071599947048 -0.0016983935799 -0.00028992251721 -0.00070493620664 -0.0009943188348 0.00055183804275 
-8.6410475629e-05 -0.0021519305628 -4.0092137896e-05 0.00071685930255 -0.00053278549807 -0.00024082622595 0.00067608262609 -0.00084835186477 -0.00015379200938 
0.00062638298125 -0.0012086290595 2.6930254463e-05 0.00019114330759 -0.0015291751234 0.00039669070384 0.00051141047164 -0.0015927384524 -9.3343736007e-05 
0.13089029193 -0.15047118009 -0.033256895464 -9.6894788166e-05 0.00019477288872 -0.00044024340981 -0.00034192035215 0.00080720711236 0.00063761500427 
-0.00013123713075 0.0002138307388 -0.00022335838705 -6.595015416e-05 -0.0010777084014 -0.00043559219984 -0.00037744715405 0.0010097978664 0.00074732013218 
-0.00061252137387 -0.00071500312606 -1.5773479067e-05 0.00067249023582 -0.00043595754079 -3.6149276117e-05 -9.4867363676e-05 -7.6877565532e-05 0.0011843705126 
0.0002286005687 -0.00058224944275 -0.00027539061436 7.6624941227e-05 -0.00068226503941 -0.00052775314001 -3.4677128752e-05 -0.00041997328102 -6.8804811608e-05 
0.0021299284628 0.0006902993984 0.00036854042106 -0.00044631503081 -0.00086449342659 2.724432958e-05 -0.00045696616558 -0.0013732422796 -0.00093669229284 
-0.00027821602091 -0.00070836526429 -0.00053537771837 0.00061640006834 -0.00089197256836 -0.00012984285259 -0.00021619916711 -0.00050035017117 -0.00040964282236 
0.00080835224831 -0.00095436148304 5.8734139262e-05 0.00070517039656 -0.00077534765914 -0.00023900819339 0.010503899615 -0.0046209359472 0.024265231741 
0.0001581220835 -0.00039658561183 -7.126841539e-05 0.00045301250627 -0.0015912855593 -7.7675178029e-05 -0.00028308848286 -0.0012686984788 -6.1696824666e-05 
-0.00014093827868 -0.0004649723965 0.00064739183316 0.00052043878594 -0.0009033521219 -0.00046873894579 0.00028495587536 -0.0016856891203 0.00059240168352 
3.0372137598e-05 -0.00090321826481 1.6382032486e-05 0.00025812328587 -0.0010485364999 -5.2128021281e-08 0.00017138076858 -0.00077244535141 0.00030876951422 
0.00021419753559 -0.00064588216445 0.00064584457531 0.00093607875538 -0.00078099628235 -0.00011309984346 0.0002811765495 -0.00071209649426 -0.00011358432962 
0.00046075748013 -0.0012634185672 0.00012325223972 0.00035579239536 -0.001523594882 0.000173866202 0.00072962848695 -0.0013606691803 -0.0004169045511 
0.00012993513573 -0.0015130692743 0.00051035313752 0.00013183860522 -0.00074152218179 -0.00030375274276 0.00021895313735 -0.00097540671359 0.00014463589573 
0.0003509503828 -0.001115566052 0.00028244006391 0.00063673902347 -0.0010856729946 0.00011321726402 0.00029155902476 -0.0012190988399 2.3471185173e-05 
1.9529961453e-05 -0.0007465290064 7.1140006242e-05 0.00026902591126 -0.0013528786542 0.00095925225204 0.00023822315837 -0.0016067435827 -0.00017250698041 
0.00062461425922 -0.0013699502034 0.0001258462764 0.00031910229417 -0.0001389569642 0.00036523793603 -0.00058281333686 -0.0017170857678 6.9608624033e-06 
-4.0539125219e-05 -0.0011362139941 0.00070604974877 0.00016732578963 -0.0015726404818 1.247687147e-05 4.82589218e-05 -0.0011191385271 3.4518344256e-05 
0.00088495640146 -0.00089106295414 0.0001552511501 0.00048845869001 -0.00089538773945 -0.00031621569146 0.00011765431456 -0.0014248815291 -0.00046309170166 
0.00023972816609 -0.0015344757884 -0.00021201979736 0.00035254760612 -0.0012195486976 9.5530117472e-05 0.0010519649643 -0.0015187828368 -2.282525005e-05 
-0.00012899675884 -0.0010385825846 1.3550030698e-05 -0.00021686428319 -0.0018213290784 0.00091498029149 -0.00025857842072 -0.0014928876815 -8.5970324747e-05 
-5.6378548405e-05 -0.00095828144578 2.0453472344e-06 5.5996458578e-05 -0.0015529774339 -0.00057033281616 7.4042682102e-06 -0.0015112829532 -1.4869804872e-05 
0.00024887974438 -0.0015244179874 -7.5748072255e-05 0.00068133149999 -0.0014672139848 -6.3686643002e-05 0.00036543951865 -0.00099680720691 -0.00010119734148 
0.00026767733113 -0.0010720741022 -2.8640526161e-05 0.00079407364459 -0.0013919858659 -2.0957998652e-05 0.0004549312615 -0.0012222959491 -0.00028085521229 
-0.00014307043435 -0.0013427579362 -9.9629637121e-06 0.0011214545639 -0.00098702051836 -0.00052053002462 1.8097884435e-05 -0.0015467857918 3.1952234888e-05 
-0.005046196098 -0.0035621107983 -0.0017858856523 -0.00035650385191 -0.0019937469177 -0.00038337238624 0.00044322223761 -0.0011793181219 -0.00016156983649 
9.0516490032e-05 -0.0014327595029 -1.6347884696e-05 0.00038040490842 -0.0010192873096 -5.6393514603e-05 0.00013810171897 -0.0012693896368 3.2668191218e-05 
-6.1840294099e-05 -0.0021787097613 3.2381849774e-05 0.00010177947887 -0.0016612472839 -2.2674134091e-05 0.00036009692682 -0.0022408203412 0.0016057066296 
0.0004693293755 -0.00080261360033 6.0516474049e-05 0.00060368124941 -0.0010138038198 0.00021491205195 0.00012067772903 -0.0013423400383 0.00069725977649 
0.000292425799 0.00034130186943 0.00013504135292 -0.00056768865915 -0.0001677264749 0.00010472414069 -0.00033398242218 0.00088839193311 0.0006702279704 
-0.00039078210112 -0.00075778895493 0.00089074469488 0.00011747220766 -0.00043244726498 -6.9704905271e-05 0.00075853708728 0.00083967838063 0.00070712711915 
0.00014698756452 -0.00026791948129 0.0012070064668 0.00025452657304 -0.00028422991893 -0.00048290662974 0.00069748940367 0.0011740499558 -0.0015723160749 
-0.00042465372073 0.0005278504966 -0.00031855021258 -0.00020306648771 0.00063794291294 -0.0013795485205 0.00062779935203 0.00019391440113 1.9453659975e-05 
6.974948115e-06 -0.00026472212481 -0.00063841623514 -0.00017521055062 -0.0015746030412 -0.00047317158651 0.0012815645091 -0.0010251871521 0.00037826226507 
0.00010123665202 -0.00013839850195 -9.7684750526e-06 0.00079556230439 -0.00020780493173 -0.00011975698557 -0.00030680912571 -2.9447655685e-05 0.00044998597259 
0.0007076291624 -0.00061452361659 -0.00079044053128 0.0003369330159 -0.00048341507373 6.2258998037e-05 0.00026153942532 -5.3127481164e-05 0.0006757378362 
-0.00029102130138 -0.00021576700728 -1.1768784025e-05 0.00040516231741 -0.00077075744195 5.0007063863e-05 0.00026190802434 -0.0010814412446 -0.00010650308553 
0.00013195030492 0.00025296090296 -0.00036069565768 8.7614322146e-05 -0.00091418468837 0.0010108960761 -0.00061935813437 -0.00042122394251 0.00028507190329 
-0.00016377017649 -0.0013788165602 0.00034127927356 0.00046897793417 -0.00070330814049 0.0010074003471 0.0011535773774 -0.000823626324 0.00110519463 
0.00072364034574 -0.00094349805231 -2.0740034101e-05 0.00054969275862 -0.00040423435867 0.00013112270084 -0.00028026864222 -0.0015856522762 0.00033857256325 
0.00047663663774 -3.3637426204e-06 -0.00052178011434 0.00045701703776 -0.00048358927167 5.8568107254e-06 0.00039347436553 -0.0013067647886 0.00029499372798 
-0.00023688139969 -0.0012695598843 -0.00019481941307 0.00082605907734 -0.0014533158786 0.00048113831634 0.00036174383436 -0.0005826209927 0.00088029793145 
0.00010528113163 -0.00041825839754 -6.2918838008e-06 0.00031063786471 -0.00053184602142 -0.00047665410591 0.00022692682853 -0.0011351537235 1.2876956409e-05 
-0.00020308956453 -0.00046296817439 -0.00063543954302 0.0008331531836 -0.0016104448284 0.00092269077554 -0.00037214658794 -0.0011203638261 0.00029301636746 
-1.0833075703e-05 -0.0018303062647 0.00015956690016 -0.00045670694738 -0.0012657741616 0.00011022173512 -0.00032960532287 -0.00095197023367 0.00012514120222 
0.00044200420223 -0.0015319744375 -2.4676485e-05 0.00063307999454 -0.0018316134501 0.00070059822958 0.00062249557291 -0.0015369586453 0.0011500834107 
0.00022745765794 -0.001009553387 3.114416603e-05 0.00010996125864 -0.0010580915564 7.3884753301e-06 0.00055523091427 -0.001541830792 3.1972751806e-05 
0.00017443015986 -0.0014770382416 -0.00054913528107 0.00013034385427 -0.0014620977553 -0.0002588275234 0.00039487922385 -0.0010791229241 -0.0001655447008 
-0.00058760841108 -0.0014395840058 -5.2127734062e-05 -0.00079453912839 -0.0019202573043 0.0011656120454 0.00022384117508 -0.0012644632599 -0.00039283226396 
-0.00027852878501 -0.0010333902619 0.00026029257027 0.00022042230873 -0.00089639692203 -1.7430768871e-05 0.00012773176835 -0.0014717272833 4.0831665685e-05 
0.00037246837994 -0.0013318092242 -0.0001323705381 0.00090400292093 -0.0019600262154 -7.6810565805e-05 -5.0988074727e-05 -0.0022916381246 5.7824635054e-05 
-5.642749406e-05 -0.0010168751842 0.0003357409026 -7.0749789665e-05 -0.00057738310901 -0.0012723579898 0.00069751274071 -0.0014528304483 -0.00069288420253 
0.00024399619769 -0.0010163116879 -4.2761321357e-06 0.00032783146975 -0.0014415923295 0.00013198756949 0.0001723044147 -0.0014315009822 -3.5103613398e-05 
5.1102420959e-05 -0.0012966523402 0.00021397122454 -9.3557007672e-05 -0.0019934179129 4.1832267826e-05 -0.00040863135924 -0.0020994338996 0.00093147809987 
-6.1433294113e-05 -0.0022495358286 -0.00021287640639 0.0010350802282 -0.00096863509976 0.00054020226339 -0.00010035141288 -0.0019896468312 -0.00046226493406 
0.00010078689331 -0.0019740853056 9.3657405762e-07 0.00036588949627 -0.0012844372456 3.9317605388e-05 0.001107601816 -0.001025831619 0.0029060081463 
0.00014434151837 -0.001507850583 1.15164592e-05 0.00038510170304 -0.001145660489 -2.8086628646e-06 0.00015385595316 -0.001379697775 2.6071958276e-05 