# vtk DataFile Version 4.1
vtk output
ASCII
DATASET UNSTRUCTURED_GRID
POINTS 1274 float
0.512638 0.554695 0.0379516 0.469392 0.651494 0.105405 0.487586 0.598705 0.268458 
0.494633 0.587842 0.0991523 0.423517 0.756331 0.0323149 0.424277 0.768881 0.119383 
0.475378 0.637882 0.212959 0.459515 0.670638 0.268649 0.393663 0.845753 0.058977 
0.398238 0.813159 0.164519 0.44561 0.700061 0.215074 0.4325 0.739564 0.265757 
0.362633 0.903288 0.0319701 0.343396 0.969071 0.0517986 0.381103 0.87895 0.146411 
0.394619 0.844852 0.231928 0.345106 0.958135 0.260053 0.313666 1.03993 0.038719 
0.390222 0.914345 0.0866521 0.447429 0.899476 0.110136 0.331981 0.996815 0.129953 
0.408699 0.915614 0.218479 0.310209 1.03823 0.265122 0.351814 0.929965 0.187769 
0.281228 1.10278 0.0483484 0.327839 0.988144 0.200652 0.286395 1.10874 0.260298 
0.257422 1.16325 0.0336643 0.356868 1.11627 0.104512 0.301666 1.06943 0.109463 
0.289733 1.25263 0.0382188 0.302689 1.04581 0.200308 0.283363 1.10099 0.17247 
0.333036 1.25602 0.0926919 0.384549 1.15843 0.0374628 0.275391 1.14885 0.110332 
0.421349 1.15042 0.106533 0.260516 1.15097 0.208653 0.339958 1.10748 0.211355 
0.218576 1.25641 0.0332148 0.319666 1.18668 0.054343 0.319494 1.15725 0.173663 
0.244568 1.19945 0.164618 0.287488 1.18346 0.26484 0.238885 1.22258 0.093834 
0.371631 1.23233 0.0356631 0.236423 1.23053 0.236455 0.215535 1.25711 0.1498 
0.541304 0.470065 0.0302094 0.611606 0.295476 0.0943555 0.595482 0.35887 0.121352 
0.596816 0.347844 0.197576 0.576037 0.389011 0.266499 0.610052 0.314486 0.261843 
0.540682 0.47005 0.20979 0.508516 0.558312 0.219181 0.603362 0.328977 0.0358989 
0.566621 0.417646 0.159315 0.483699 0.62479 0.038537 0.609877 0.475949 0.047997 
0.545898 0.475188 0.0985088 0.549485 0.448344 0.268473 0.565118 0.572213 0.262771 
0.527349 0.512623 0.159548 0.55057 0.669188 0.0308598 0.445259 0.71179 0.0785475 
0.517433 0.698161 0.106392 0.471311 0.754037 0.178168 0.551045 0.548343 0.101138 
0.523111 0.659103 0.266702 0.446146 0.69743 0.146121 0.414688 0.778208 0.214363 
0.50095 0.681542 0.170155 0.554272 0.577645 0.168533 0.494007 0.78089 0.0920312 
0.535278 0.761185 0.14629 0.458516 0.815288 0.0363747 0.508324 0.725056 0.0397538 
0.48429 0.81848 0.150713 0.436551 0.836216 0.113087 0.364302 0.894767 0.269731 
0.499179 0.769953 0.260788 0.538527 0.61803 0.219261 0.563178 0.748279 0.220238 
0.467649 0.816248 0.213543 0.506514 0.706659 0.226702 0.459756 0.889983 0.0400871 
0.520314 0.854425 0.0354224 0.535529 0.791738 0.0326235 0.453945 0.87634 0.177696 
0.494975 0.850631 0.0954334 0.464907 0.870698 0.260664 0.438581 0.804439 0.269008 
0.416734 0.95232 0.0373623 0.373465 1.09013 0.0325885 0.465825 1.00523 0.0331276 
0.400291 0.9974 0.0948811 0.41539 0.948701 0.150707 0.468016 0.964778 0.0912447 
0.485371 0.941567 0.262185 0.419579 0.973107 0.26148 0.534935 0.983936 0.2689 
0.459787 0.952791 0.203204 0.383649 1.02505 0.0323971 0.365373 1.05535 0.0849887 
0.463513 1.03271 0.0903296 0.36267 1.06359 0.158401 0.395321 1.0052 0.196856 
0.441584 1.05158 0.264238 0.377006 1.02965 0.267477 0.483219 1.00412 0.236234 
0.45669 1.13683 0.0385413 0.470529 1.08365 0.123183 0.427212 1.04262 0.13888 
0.361023 1.09093 0.269156 0.526219 1.1791 0.175314 0.48976 1.10295 0.267778 
0.407829 1.08881 0.213255 0.429572 1.13417 0.264219 0.445412 1.12095 0.166822 
0.358956 1.16105 0.260112 0.511017 1.18744 0.0384161 0.498488 1.14738 0.11968 
0.436559 1.20659 0.0341929 0.369575 1.2022 0.101094 0.381163 1.13386 0.166381 
0.338899 1.23739 0.260951 0.453284 1.16818 0.207721 0.402402 1.20703 0.221093 
0.469273 1.19138 0.266122 0.487352 1.25539 0.0362705 0.312455 1.21288 0.137364 
0.460172 1.24956 0.225846 0.300303 1.21336 0.204035 0.474427 1.21262 0.169776 
0.373026 1.22958 0.163469 0.639563 0.231577 0.179388 0.564156 0.412718 0.031572 
0.660017 0.192983 0.0565631 0.661216 0.287462 0.21308 0.640162 0.241133 0.263509 
0.668947 0.174443 0.207147 0.642702 0.223516 0.115548 0.631585 0.406254 0.0363498 
0.592263 0.423162 0.0894713 0.526949 0.509977 0.265846 0.605451 0.487115 0.262851 
0.617357 0.291165 0.159163 0.639238 0.377523 0.246083 0.613676 0.460357 0.136513 
0.587706 0.546902 0.0375193 0.660464 0.423672 0.101629 0.534086 0.636405 0.131917 
0.604596 0.528825 0.146704 0.57569 0.524705 0.211752 0.592574 0.433598 0.220502 
0.613492 0.623981 0.266299 0.603668 0.718313 0.0390311 0.555301 0.610405 0.0647015 
0.569405 0.73426 0.0986866 0.566457 0.698142 0.157664 0.599868 0.710274 0.268228 
0.591485 0.634508 0.174508 0.64411 0.640665 0.211102 0.572033 0.672121 0.224571 
0.597037 0.75883 0.159926 0.586962 0.666464 0.0959221 0.639201 0.787827 0.0390308 
0.561615 0.796989 0.0909085 0.541516 0.814205 0.189907 0.545246 0.832123 0.261832 
0.616111 0.774724 0.265252 0.515592 0.873188 0.210925 0.625362 0.708997 0.201156 
0.60047 0.821441 0.221532 0.584856 0.837575 0.0350053 0.560794 0.86043 0.0929657 
0.566004 0.909453 0.039701 0.503973 0.943539 0.0315439 0.552071 0.90954 0.260437 
0.598221 0.967178 0.265549 0.528483 0.862891 0.146455 0.505641 0.923561 0.172046 
0.535353 1.00315 0.0511815 0.522711 0.916315 0.105914 0.473343 1.05918 0.189628 
0.468646 0.995631 0.15493 0.53741 0.988632 0.137752 0.518024 1.04673 0.269179 
0.570615 0.944586 0.192214 0.436497 1.06645 0.03478 0.538677 1.12411 0.0335697 
0.573014 1.06458 0.0351737 0.504101 1.0648 0.0328709 0.552219 1.10774 0.0955653 
0.523017 1.05014 0.104492 0.542792 1.00841 0.209091 0.503103 1.12544 0.204824 
0.538645 1.2339 0.0892796 0.574266 1.21164 0.032288 0.563844 1.1766 0.123103 
0.522946 1.09112 0.152821 0.604815 1.0871 0.268671 0.540204 1.23782 0.15934 
0.534042 1.21129 0.237482 0.566859 1.12991 0.180254 0.556933 1.07297 0.214655 
0.553583 1.13664 0.259467 0.639889 1.20741 0.0428767 0.622019 1.20952 0.110258 
0.46488 1.2147 0.10072 0.647655 1.23578 0.221531 0.595638 1.19853 0.186292 
0.77326 1.16771 0.205899 0.678966 0.130924 0.0402989 0.693124 0.119959 0.113237 
0.721562 0.0322013 0.192842 0.682101 0.134043 0.265514 0.69774 0.0947545 0.181924 
0.636812 0.262309 0.0387356 0.695767 0.315509 0.039668 0.70225 0.225439 0.150418 
0.704414 0.266371 0.267353 0.640211 0.406097 0.17408 0.695292 0.199751 0.267446 
0.678628 0.327086 0.266693 0.662982 0.336194 0.137868 0.679927 0.458173 0.0416451 
0.658713 0.494856 0.0970852 0.65193 0.356557 0.0776789 0.68588 0.466671 0.158051 
0.649787 0.461341 0.21691 0.681789 0.278472 0.104412 0.729162 0.411973 0.197669 
0.690697 0.353758 0.201309 0.611724 0.644654 0.0351629 0.661572 0.525063 0.0349323 
0.635477 0.558109 0.0890547 0.595383 0.599809 0.119973 0.648022 0.606862 0.156676 
0.663853 0.68345 0.262134 0.638346 0.545962 0.269081 0.687148 0.582115 0.207277 
0.617078 0.57833 0.208957 0.673231 0.546656 0.150128 0.677825 0.515931 0.20626 
0.629048 0.714905 0.122621 0.658264 0.654266 0.0918733 0.697328 0.572563 0.09749 
0.7087 0.626902 0.139404 0.717187 0.647086 0.206673 0.661153 0.822905 0.268702 
0.665342 0.671738 0.15981 0.624201 0.802333 0.116934 0.647735 0.876107 0.0391007 
0.689483 0.761107 0.0794375 0.708255 0.701922 0.0854693 0.680429 0.762617 0.149005 
0.637351 0.775209 0.203118 0.696902 0.71559 0.204985 0.613425 0.867845 0.265677 
0.582808 0.871737 0.182276 0.615008 0.968736 0.0372509 0.668611 0.984355 0.0765176 
0.630557 0.868427 0.106315 0.643886 0.926738 0.0884736 0.586979 0.907562 0.125483 
0.609992 0.96689 0.138947 0.634842 0.984249 0.209848 0.677547 0.848636 0.147909 
0.6356 0.922147 0.233707 0.643517 0.864518 0.207738 0.632696 0.915997 0.169087 
0.630555 1.10734 0.0300642 0.641952 1.03935 0.0397755 0.694378 1.0918 0.0358785 
0.574799 0.956222 0.0907389 0.594452 1.0205 0.0955936 0.667544 1.04208 0.11569 
0.578032 1.03029 0.26042 0.61407 1.02485 0.1618 0.67225 1.03081 0.184064 
0.616458 1.08926 0.0909908 0.622676 1.14296 0.138324 0.696821 1.16471 0.0370849 
0.595375 1.15335 0.064653 0.582271 1.07719 0.146478 0.624021 1.05569 0.216996 
0.741297 1.13151 0.0835639 0.636242 1.13247 0.223619 0.661169 1.09191 0.167681 
0.603595 1.19494 0.263609 0.749223 1.21196 0.033559 0.791162 1.1814 0.100996 
0.689628 1.16913 0.106127 0.673272 1.19827 0.168448 0.677284 1.18691 0.260918 
0.721819 0.0830232 0.0341635 0.753678 0.121744 0.0765595 0.717954 0.0495862 0.118565 
0.783903 0.0581608 0.126084 0.723469 0.0414344 0.26252 0.73537 0.105112 0.243012 
0.707637 0.241876 0.0350554 0.750891 0.18168 0.0391972 0.76841 0.26587 0.0304547 
0.736555 0.178488 0.110522 0.727651 0.156545 0.172536 0.756138 0.167123 0.263415 
0.774001 0.229959 0.155218 0.769745 0.242802 0.262413 0.731699 0.209505 0.212745 
0.70321 0.39114 0.036394 0.765322 0.327647 0.0314096 0.720523 0.333409 0.103399 
0.747386 0.251793 0.0925865 0.732931 0.418434 0.0925651 0.764656 0.373816 0.127221 
0.703733 0.387127 0.140962 0.74805 0.319916 0.263464 0.734162 0.281383 0.197376 
0.697101 0.420314 0.260497 0.726491 0.513037 0.0870809 0.752211 0.463477 0.0378113 
0.797063 0.484106 0.0864743 0.755031 0.468861 0.135208 0.790219 0.419219 0.170486 
0.67522 0.493359 0.266645 0.804172 0.511703 0.26417 0.773425 0.400201 0.260577 
0.741046 0.480865 0.246346 0.718356 0.548047 0.263651 0.669822 0.598538 0.0391244 
0.694082 0.664459 0.0315317 0.73745 0.532698 0.175716 0.761453 0.580824 0.121787 
0.678944 0.613422 0.2674 0.752877 0.585206 0.216585 0.743536 0.621625 0.267491 
0.673527 0.723906 0.0322478 0.74783 0.747913 0.111842 0.758202 0.691638 0.0384741 
0.727948 0.754819 0.0312102 0.748321 0.655386 0.0971589 0.740197 0.692908 0.261125 
0.688219 0.816291 0.208854 0.727125 0.691675 0.146888 0.751627 0.744685 0.178779 
0.694273 0.744189 0.269539 0.702105 0.933532 0.0399812 0.717483 0.852664 0.0346098 
0.681601 0.824315 0.0844186 0.694186 0.887562 0.0953293 0.739732 0.809491 0.159493 
0.738088 0.837718 0.260085 0.733445 0.774733 0.22973 0.681236 0.885448 0.265523 
0.712526 0.877267 0.207134 0.688156 0.950562 0.268913 0.717687 1.01988 0.0398205 
0.725637 1.0683 0.0896237 0.727907 0.951639 0.107527 0.689474 0.946474 0.205787 
0.672052 0.975288 0.13886 0.693006 0.917623 0.15041 0.730763 1.00858 0.155189 
[...]
POINT_DATA 1274
FIELD FieldData 10
VELOCITY 3 1274 double
0.00059585271982 -0.0010050930965 -0.00019563545603 -9.2118704687e-05 -0.00073446274632 -0.00030246728772 0.00048612931076 -0.001196545434 -6.4753232696e-06 
0.00042052915698 -0.0017096579765 0.0012738516397 0.00023492420986 -0.00066261130493 -0.00017199559579 2.9986041573e-05 -0.00042891504425 -4.7022145112e-06 
0.00022718248051 -0.00051084722831 -0.00010921572194 -0.00066945660215 -0.0011260139125 -1.7116034542e-05 0.00049856951551 -0.0012302575472 -0.00038955481654 
0.0004460462048 -0.00052316855268 0.00035385594529 0.00036378447591 -0.0009068605537 -0.00012544178294 0.00039117126377 -0.0010473897062 4.9573635179e-05 
0.00045895198593 -0.0011008137932 6.9861175358e-06 0.00046323853558 -0.0010157166247 0.00028231762579 0.00020570628124 -0.00060175645019 0.00020140711476 
0.00037815426905 -0.00078913932766 -6.7635531918e-05 0.00036443022141 -0.00087735017058 -2.8137047085e-05 0.00040180475761 -0.0010411604533 3.5307983239e-05 
0.00071524032919 -0.0010798752737 -0.00016618455798 0.00034183449895 -0.00055069652926 -0.00010790660153 0.00037794942239 -0.00087848395865 -9.1145544286e-06 
5.4467015296e-05 -0.0008182998337 -9.1216972027e-05 0.00027304110123 -0.00074654265616 8.1060135368e-05 0.00022173874262 -0.0005450685212 -0.00013206366867 
0.00043846012735 -0.0010286651385 -2.8265377321e-05 0.00025052548852 -0.00060004133858 0.00020218942956 0.00019906634762 -0.00062599156235 -1.98580793e-05 
0.00037818340865 -0.00091256946131 -2.0026503532e-06 0.00053602900972 -0.0011043352659 -0.00057621098552 0.00031837375627 -0.00077783602012 -0.00043117930039 
0.00013554690658 -0.0012036362283 2.0969802424e-05 0.00028642915187 -0.00060767423327 -3.495549915e-05 0.0002757187688 -0.00068406517464 -0.00012336424129 
0.00037529706533 -0.00099509731822 -0.00019540602008 0.00062563076946 -0.0011354327835 0.0002028436512 0.00030271413299 -0.00075480395729 -0.00019057201913 
0.00041537619113 -0.00094287115126 -4.6832482135e-05 0.00031400919246 -0.00072953890285 -0.00012530462504 0.0001101302012 -0.00081556862672 -9.7356853709e-05 
0.00019647221749 -0.00044939543003 5.0511982139e-06 0.00057280209189 -0.001069791146 -0.00027143647714 0.00014696188485 -0.00078517610737 -0.00011580438079 
0.00034189817913 -0.00077383706606 -0.0001894980992 2.4377951285e-05 -0.00061843079486 -7.4315715946e-06 0.00031881969843 -0.00075364457654 -0.00022416244348 
0.0005553624558 -0.0010131730026 -2.3224988128e-05 0.00018703546608 -0.00045784467092 -4.3012743153e-05 0.00032061403823 -0.00078334918175 -0.00017860402092 
-0.00017557647365 0.00041033318844 1.8479128364e-06 0.0011214302969 -2.8070662676e-05 0.00036709777516 -0.00030691684137 -0.00027534962093 0.00032168979531 
0.00048381308209 -0.00060737367324 0.00044999322164 8.3175433363e-05 -0.0022092818073 -0.0014167438309 0.00016172049786 -0.00060524918871 0.00041679880924 
7.7335294026e-05 -0.00046578352529 0.00046473285875 0.00056442840431 -0.00079821807698 -0.00033631481535 0.00012835779321 -0.00027423597437 2.4430805544e-06 
0.00035202447093 -0.00033454134383 4.5102934955e-05 0.00047523307587 -0.0011654689747 -0.00074013465199 -0.00023264797182 -0.00092982663438 -0.00031840866407 
0.00022946255027 -0.0007917901467 -4.7083182551e-06 0.00076647787201 -0.00038116779529 0.00024672453572 -4.9569689359e-06 -0.00066698693604 4.7004358034e-05 
0.00011009412779 -0.00046355202382 4.0761218787e-05 0.00023020676452 -0.00064591069257 -1.1340923906e-05 0.00014479701431 -0.00011703715909 0.00055770682286 
0.00023877559867 -0.00063622290906 0.00046582057605 0.00046952654334 -0.00070097612226 4.6250049872e-06 0.0001415492844 -0.0003806122035 0.00042082193639 
-0.00083580348569 -0.0010852283868 -6.4267431586e-05 9.563383687e-05 -0.00021807084269 -0.00026387905777 0.00018159046304 -0.00094327609287 6.0974387742e-05 
5.6003372219e-05 -0.0010493109808 -0.00055692464324 0.00038231527642 -0.00066186420079 -0.00028743583543 0.00028143738277 -0.00087576018702 0.00017537394705 
0.0008045841163 -0.0015837597428 0.00092084363174 0.00082087886475 -0.00092792888626 1.0445773523e-05 0.00039438408574 -0.0008625077883 6.571345383e-05 
0.0001849502623 -0.00076803723046 8.8960405567e-05 0.00082504258508 -0.00063442959338 2.8518546912e-05 0.00032406431371 -0.00087638004776 8.7160345637e-06 
0.00013707477989 -0.00056648627993 -0.0002555446287 0.00088666143711 -0.00020605741436 -0.00063749653155 0.00058440636779 -0.001420354892 0.00032336087242 
0.00038432911886 -0.00091661772986 0.00037612938291 0.00039031392062 -0.00097799045134 -0.00021358705107 0.00030292474122 -0.00087761921705 0.00023308498857 
0.00014205456222 -0.00078471023073 -0.00070012370636 -2.1015135975e-05 -0.00095363328917 -1.3143945851e-06 7.9804988717e-05 -0.00086020536205 -2.6404552699e-05 
0.00054340018098 -0.0010305628256 -0.00050145715467 -0.00068488543568 -0.00051085260674 -4.3096609058e-05 5.5952067716e-05 -0.00099878206077 0.00011086197749 
0.00057061580583 -0.00068641838591 -5.8748152873e-05 0.0001333902766 -0.0010620970543 1.3239860039e-05 5.443929629e-05 -0.00090516114731 1.4203034661e-05 
0.00029452398916 -0.0010233031068 0.00031150868812 0.00089315862826 -0.00091994536728 0.00028382122865 0.00081981835524 -0.00049377710386 0.00010855888689 
0.00016133373679 -0.00075455012038 0.00053906602389 0.00024828556191 -0.00072703848426 -0.00012919293512 0.00023889415072 -0.00088098844109 -1.3063393587e-05 
0.00097594726567 -0.0017070304321 -3.3414597603e-05 0.00013852875775 -0.00086791467871 6.4727949574e-05 4.5853788482e-05 -0.0012573675913 -0.00023871299348 
0.00014040888251 -0.000643023985 -0.00011784287805 0.0002688627226 -0.00092449419763 7.7193941657e-05 0.00017502897392 -0.00074908065778 -7.0402304733e-05 
0.00030715244019 -0.00044940158907 -2.5424012969e-05 0.00030829285909 -0.00060252172287 4.1772320577e-05 7.3066947349e-05 -0.00090661887701 0.00030621747035 
0.00070577353476 -0.0010299824828 5.030466809e-05 4.7745563014e-05 -0.00058915542703 -0.00016683271807 0.00026966989976 -0.00064287607638 0.00012502536092 
-0.0002978778092 -0.00078693949043 -2.4741673564e-05 0.0011109328383 -0.00096392753136 1.6599781716e-05 -0.0001018734427 -0.00097686409338 -4.4037002489e-05 
-0.00011902666698 -0.00055161030474 0.00013192672777 0.00013750745267 -0.0004849327071 -3.0473055328e-05 -4.4806138227e-05 -0.00080311994086 -3.642197606e-05 
-4.0735485868e-05 -0.00081849514144 2.0752164014e-05 0.00034895905545 -0.00067242735398 -0.00017042124916 0.00038108176556 -0.00065116482075 0.00011844069219 
0.00057413603177 -0.0009958927801 1.460571839e-05 0.00040789220326 -0.00097772682915 -0.00017944178637 0.00011640057464 -0.00073220063068 -0.00026725191367 
-3.4642261491e-05 -0.00081377993597 8.880390569e-06 0.00060719100987 -0.001031636844 0.00014227364989 0.00074360436915 -0.0010206565066 0.00064280752438 
0.0003926557488 -0.00068301166241 2.6419473064e-05 0.00027396829402 -0.00072820629413 1.1324590352e-05 0.00021501272632 -0.00077188061845 -5.80855125e-05 
0.00064009560057 -0.00079484559713 -0.00039799404172 3.2666123864e-05 -0.0008098073079 -8.9488875239e-05 0.0009398005444 -0.0012703172202 9.5943191762e-06 
0.00037414973979 -0.0021536548164 0.00038303937848 -0.00018002256385 0.0001349113521 0.00012187747795 -6.2218304545e-05 0.00039944828298 -3.0697856676e-05 
-0.00012485259423 -0.00011173830605 0.00043568788463 -0.00035134119795 -0.00028028150477 -1.8167897546e-06 -0.00012595631295 0.00033858930086 0.00066760184075 
-3.7513192358e-05 0.00028350823899 0.00043727761233 0.00014135246901 -0.00047579087276 0.00087492828434 -0.0016222636171 -0.001647024371 3.2249966457e-05 
0.00077503828544 -0.00011156351713 0.00019477647289 -0.00020277775902 -0.00058105380128 -9.19172914e-06 0.00052699173832 -0.00093450616286 0.00028401881144 
-0.00053053082122 0.00049091224448 0.00029678175506 0.00071667143814 -0.00083526730386 0.0017533192239 -0.00037533656986 -0.00047869629862 -0.00084272954258 
0.00051391717038 -0.00059765163475 3.4494876206e-05 0.00068575616953 0.00016380055516 -0.00027203223209 0.00086774303009 -0.00063789258303 -0.00099534472465 
0.00046650633617 -0.00088773008019 0.0011495901751 0.00052774981841 -0.00085182990147 3.6056973763e-05 0.00043988559469 -0.00062284638557 -0.00015077502815 
0.00059287362823 -0.0014560435584 -1.4171522395e-05 -0.00056426624804 -0.0013142689645 -0.00018915015795 -0.00038746154318 -0.00047235646018 0.00023694778531 
0.00070375584295 -0.0001448746729 3.3694048367e-05 0.00030981489299 -0.0010815467749 0.00058029894933 0.00030425472455 -0.000909181982 5.3094022706e-05 
0.00084783079189 -0.0008718469383 0.0003180461831 0.00068923894398 -0.00089661191041 6.5650563348e-05 -0.00027977911505 -0.00041851576677 -0.00010425075955 
-0.0014331113369 0.00032080110304 -0.00015773204295 0.00022055319607 -6.2453419076e-05 -8.3090132054e-05 -6.2361701725e-05 -0.00099832397284 1.2971246031e-05 
0.00033975817866 -0.001216340276 -6.1194984372e-05 -0.00080699383005 -0.00033267905655 -0.00018200061289 0.00013034444397 -0.00086662639099 -5.012258656e-05 
-5.5450922326e-05 -0.00038525637784 5.5570483021e-05 -0.00019119187856 -0.00063681149235 0.00035313206289 0.00028405235683 -0.00077245479822 0.00043676764386 
-3.3336995185e-05 -0.0011512678025 -0.00012787098528 0.00024836309242 -0.0008509691778 -0.00052606015913 0.00047789714245 -0.0013452064446 -0.0001709332692 
-4.3187668288e-05 -0.0009495167063 9.6715175113e-05 -5.5407254892e-08 -0.00077330437368 -0.00014189090151 0.00019200507601 -0.00077125195688 -3.115659948e-05 
0.00031673247265 -0.00081886127313 0.00014314676929 0.00031154060918 -0.00076649093218 -0.00031282499712 0.00048988145015 -0.0014905323808 -0.0009397848501 
0.00050191573056 -0.00097966095279 5.8022186684e-05 0.00035354223302 -0.0012639172578 -0.00094226675182 0.00020419970377 -0.00079321687872 0.00038459050756 
0.00036313344156 -0.00051934989293 -3.5075160143e-05 0.00024244912233 -0.00080298386715 -0.00014018656029 0.00025804856509 -0.00082318341186 -4.0983283753e-06 
5.2385991218e-05 -0.00061725463753 -0.00016273958708 0.00019332091976 -0.00086343444423 -0.00010442114356 -6.7955241823e-05 -0.00088107087717 -7.0257607249e-06 
0.00011014107855 -0.00080287311591 8.8184204625e-06 0.00012406004993 -0.0011743380059 2.552037247e-05 0.00019447224768 -0.00081744165748 -8.2015853997e-05 
-4.7716233832e-05 -0.00060628475102 0.00015883712601 -7.4124061349e-05 -0.00082818545813 7.2341276382e-05 -5.8151648437e-05 -0.00052462619393 -0.00015743758029 
0.00019342649806 -0.00069385598091 -7.218167684e-05 0.00036017932272 -0.0006498146229 -1.045289847e-05 0.00037169854147 -0.00066726207358 -0.00012980889364 
6.5115955555e-06 -0.00099835944516 -2.4246242128e-06 0.00010097894035 -0.00072628729641 6.0352623729e-05 0.00048028424313 -0.00078962682911 -9.1920306999e-05 
0.00026351720913 -0.00061016925375 -8.3751027049e-05 0.00084161273227 -0.0012450045901 -0.00061346396809 0.00034626596568 -0.00084482069042 -1.0019084367e-05 
-0.00013126645866 -0.00091002328926 -3.2137482329e-05 0.00038362493324 -0.00078433382788 -0.00017384084038 0.00049030652238 -0.00085497585148 -0.00012190524201 
0.00021506179401 -0.00078018491139 0.00012841011508 0.00019460831579 -0.00091387037349 -0.00010981268858 0.00025371961983 -0.0010497184081 1.4882370484e-05 
0.00025411138292 -0.0014350114867 -5.8048083851e-05 -1.3845078138e-05 6.4197881792e-05 -0.00026273668041 2.3648739286e-05 -0.00011943336552 0.00034135430211 
-4.0938559785e-05 6.0960333202e-05 0.0008824466102 0.00026194741259 -0.001041012544 -0.00014962777271 -6.9443019309e-05 0.00027894169214 0.00079278733335 
-0.00052045897539 -0.00051870600797 -7.5405393511e-05 -0.00028380610975 -0.00044343493342 -0.00044610168635 0.00012314607033 0.00065066657936 0.00029583729459 
0.00023481384415 -0.00039672243873 -0.00064538230836 -6.9085567649e-05 -0.00058341098277 -0.00052425634693 -4.0586797571e-05 -0.0004339686869 -7.7994877884e-05 
0.0012528521211 2.5041903018e-06 0.0002315117278 -0.00029688316018 -0.00084914741282 0.00033065779821 -0.00027661040794 -0.00053282737483 -0.00057154090213 
-0.00071141662512 -0.00042391105645 -1.8139922527e-05 0.00060961711438 -0.00083514953873 0.00016379476485 -0.00013462376115 -0.00049880248868 -0.0004072201083 
0.00045060615691 -0.00082441284388 0.00010095538184 0.00066255637424 -8.428841518e-05 -2.8064029866e-05 0.00018242081577 -0.00013885254126 0.00011660035235 
-0.00010110250224 0.0013050950691 0.00054545383975 0.00015169783628 -0.0013773815838 1.3510440218e-05 -0.0016577257564 -0.00076945149917 -0.00030019479971 
0.00031343456492 -0.00010572359572 0.00017018042952 0.00040835865462 -0.00016014902767 -0.00051046816012 0.00020652434818 -0.0015552892834 0.00044371363464 
0.00043617085668 -0.0010707092145 8.6385297862e-05 0.00070790123787 -0.00099831379342 -3.8276487633e-06 0.00032583886095 -0.00077497093067 6.2421133471e-05 
0.00029835767835 -0.00062915395706 0.00054584161357 0.00069437552887 -0.00032878131673 -8.6454639821e-05 0.00094169899673 -0.00078641925854 0.00017171965565 
0.0010106729367 -0.00094255331901 -1.9641666843e-05 0.00016408495579 -0.0011941527933 0.00054869455676 0.00024394915126 -0.0015458377191 -0.00037242621072 
0.00018471064909 -0.0010122759163 0.00089931313081 -0.00022997932932 -0.00053095770669 -0.00042504837481 0.0008016716353 -0.001466556034 -0.00051140625501 
0.0004050907126 -0.00044292339067 0.00063034356715 0.00051659828185 -0.0011690165145 0.0004593933051 0.00035451702816 -0.0011713113199 -1.9191006386e-05 
-7.0479247253e-05 -0.0015963914689 1.9748511359e-05 0.00036091704979 -0.0013479758296 0.00093853401007 0.00011456729754 -6.7748669211e-05 -8.8158957395e-05 
0.00060916795849 -0.0016883520837 0.00011878937705 0.00032168757022 -0.00051939320039 7.0311484318e-05 0.000561219892 -0.001507860267 1.7434221078e-06 
-0.00014032418334 -0.00087194437184 0.00048179687508 2.4982770146e-05 -0.00090608173893 1.2720617314e-05 -2.4577590926e-06 -0.00084361399006 -4.8919065265e-05 
0.00048678576249 -0.00090208242767 0.00011438732628 0.00032017418538 -0.00088896226648 -0.00032825271475 0.00029552567023 -0.00081272135983 -0.00070413443913 
0.00019493976729 -0.0010230897088 -0.00039413636284 0.00051415643339 -0.00090510159391 7.2900842686e-05 0.00071880904804 -0.0011503755993 -7.6064157861e-05 
-0.00019718700806 -0.0010543848745 -0.00023543445707 -5.3047634607e-06 -0.001645572552 -0.00025753194236 -0.00010068090543 -0.0014847031083 7.0897837347e-06 
0.00052203027177 9.8937134566e-05 -2.7540519876e-05 9.0175779158e-05 -0.00088583293134 -0.0003892411868 0.00021840072758 -0.00099659132311 -3.1234347645e-06 
0.00021190116909 -0.00073733419596 -0.00026102275136 0.00055353040443 -0.00090925428705 7.0287883314e-06 6.3113412355e-05 -0.0006137012645 -0.00042174043807 
0.00022367044695 -0.00081503202151 -8.9886459085e-05 -0.0002488805649 -0.0013863026185 0.00028566558431 0.00025860546718 -0.0010260309595 -0.00037433013758 
0.00015667227786 -0.0007372753371 -0.00032526603278 0.00024506175024 -0.00088982558358 -0.0002770147658 0.00024415961642 -0.0010093201004 2.9531938121e-05 
-0.00029703491876 -0.00065295595771 0.00017913271593 -0.00015193581864 -0.0014526504127 -0.00069912310967 2.2225306678e-06 -0.00083818991868 2.9259232463e-05 
0.00050466357448 -0.00092222394315 -0.00024401809343 0.00053284575218 -0.00092866512843 0.00011636901838 6.8224199442e-05 -0.00098312664232 -9.2514689174e-05 
0.00012312630549 -0.0011375900795 3.2798529251e-06 0.0003590731093 -0.0011432848201 -2.7541795605e-05 0.00087867843637 -0.0015544826253 0.00051877587458 
0.00070970135183 -0.00062619214313 1.6692122306e-05 0.00029862629582 -0.0012490165716 0.00018150976355 0.00016565467347 -0.0007269068083 0.00016697234401 
0.00027752781378 0.0003380858737 -0.00011195367579 0.00063088497236 -0.00075950094334 0.0005506284578 0.0001073696816 9.7446396598e-05 0.0010403177542 
-0.00083111385793 -0.0014202373973 0.0010563949004 0.00013818202462 -0.00037882706411 -7.7435506833e-05 0.00078028912378 0.0004386252997 0.00062400476491 
0.00058445039422 8.4842779182e-05 0.0016876145582 -0.00065590458589 -0.001005739441 -0.00054421954976 0.00032487611611 0.0013450434373 -0.001162737911 
0.00020194548164 -0.00019049453973 0.00085732766521 -0.00055962048503 0.0004548577678 -0.00074612272188 0.0003858174798 -9.2561456319e-05 -5.9096981207e-06 
-9.2565044351e-05 -0.00051355247815 -0.00047956203504 4.2553970391e-05 -0.0010875905055 0.0010201088501 -0.00011675384084 -0.00025878930834 0.00021289757257 
0.00044472385738 -0.00025573371315 5.5309886178e-07 0.0006750442316 7.4692011251e-05 0.00065523370808 0.00070005686107 -0.00031187876137 -1.614918349e-05 
0.00019989396267 -0.00050255362407 -0.00026695394461 0.00066055991585 -0.00079388883699 2.2527786836e-05 -1.4286691384e-05 -0.00036042869354 0.00070898489365 
-0.0001534632918 -0.00085855205036 -0.00033280084368 0.00023371133602 -0.00051837079169 3.1677871599e-05 -0.00074295416916 -0.00045645981834 -0.0006746868555 
-0.00019386348651 0.00050762081144 -0.0003934877002 -0.00040574936597 -0.00082669085666 0.0010315420106 -0.00076526299809 -0.00010975235593 0.00012230787075 
-0.0010200608516 -0.00043508295453 -0.00032269140974 0.00055620385357 -0.00021541130317 0.0011412837791 0.00045019640053 -0.00037067955206 0.00066922998219 
0.0003905026546 -0.0019150485738 -8.3580397871e-07 0.000401927649 -0.00045478901155 0.0002386452767 -0.00014800643588 -0.0017777354252 0.00022891662602 
0.00051923516854 -5.2284805634e-05 -0.00028426470737 -2.6208132179e-06 -0.00064051503686 -4.0748379824e-06 0.0010719364291 -0.0001199512898 0.00046819708223 
-0.00062840103398 -0.00017501600418 -6.374010648e-05 0.00049833459052 -0.00092960133089 0.00073408789335 0.00010069603978 -0.00032716930346 0.00091976433504 
0.00043308833669 -0.00079983937071 7.3624062075e-06 0.0002293912231 -7.2805947757e-05 -0.00033607011239 0.00040326510588 -0.00041186865857 -5.9824599764e-06 
-0.00017910642181 4.6550768739e-05 -0.00069089077356 -9.8352247937e-05 -0.00078102722124 0.00016933920787 -0.00046122507104 -0.00071166697335 -0.0001594902449 
0.00016174177601 0.00052484944845 4.0229013304e-06 -0.00090847473976 -0.00083128790706 -0.00016183342088 0.00011182711944 -0.00070551000717 2.9607251103e-05 
0.00066363996624 -0.00082626613271 -8.4379303788e-06 0.00024835430575 -0.00087741341987 0.00046469108005 -0.00011551126925 -0.00071214002424 -5.741397133e-05 
0.00038095408051 -0.00085274703805 -5.3775004371e-06 8.1184558962e-05 -0.00099074449712 -2.5248282308e-05 0.00023009261765 -0.0010427154408 -0.00010431740132 
0.00020643038497 -0.0011133740605 8.168905192e-05 -0.00037273120949 -0.0010414624002 -0.0001888994199 0.00072929981565 -0.00063948231549 2.3904164322e-05 
0.00054220588744 -0.0012296936372 -1.7992543435e-05 -4.5584547755e-05 -0.001476742587 0.00055716350022 -0.00025642295084 -0.00089298278244 0.00034649712126 
-5.9139809072e-05 -0.00085925071035 0.00055712196317 -0.00022183657503 -0.0010285629193 1.9972394317e-05 6.059921652e-05 -0.0010414852632 -2.1209336887e-05 
0.00057753715427 -0.0010939307799 -0.00012487862183 0.0010711479448 -0.0017494747074 -0.00010035643951 8.3622414379e-05 -0.0015484630597 5.3696144549e-05 
-2.5338751411e-05 -0.00043412510447 0.0005021068162 9.2563604326e-05 -0.00010888265936 -0.00086607102736 0.00055963012324 -0.0010783849965 -0.00059955034229 
0.00025143198858 -0.00072730603611 2.9444798918e-05 5.6475689123e-05 -0.0016410775914 -0.00013958847412 5.5320145131e-05 -0.001326496636 -0.00012499310301 
0.00027237784262 -0.00089118953871 0.00039675034129 0.00026504191907 -0.0013134834564 3.0258042892e-05 0.00041655393137 -0.0014608134669 -0.00016791284828 
0.00034772999508 -0.0015297010847 -1.9827562833e-05 0.00077713549715 -0.00062478085843 -9.8577911462e-06 1.1692671932e-05 -0.0010689643717 -0.00036287522575 
-0.00014893287512 -0.0019049854951 1.3640784304e-05 0.00030380718913 -0.0012653130337 -0.00010783183762 0.00055007344709 -0.0012578824534 8.9426738868e-05 