# vtk DataFile Version 4.1
vtk output
ASCII
DATASET UNSTRUCTURED_GRID
POINTS 1274 float
0.511984 0.55628 0.0379518 0.468955 0.652565 0.105425 0.487196 0.599652 0.268458 
0.494196 0.588895 0.0995007 0.42299 0.757606 0.0323139 0.423958 0.769658 0.119052 
0.475101 0.638551 0.213088 0.459866 0.671825 0.268647 0.39294 0.847508 0.059512 
0.397862 0.814074 0.164018 0.445105 0.701294 0.215322 0.431878 0.741073 0.265758 
0.361996 0.904834 0.0319702 0.342769 0.9706 0.0513377 0.380683 0.879971 0.146339 
0.394058 0.846212 0.232017 0.344525 0.959545 0.260022 0.313008 1.04153 0.0387203 
0.388953 0.916136 0.0869174 0.446617 0.900387 0.110257 0.331406 0.998213 0.129663 
0.408647 0.916843 0.218417 0.309865 1.03907 0.265122 0.351483 0.930765 0.188032 
0.280562 1.10439 0.0482148 0.327464 0.989055 0.200312 0.28605 1.10958 0.260298 
0.256866 1.1646 0.0336642 0.35596 1.11795 0.105491 0.301234 1.07048 0.10973 
0.289481 1.25451 0.0382187 0.302314 1.04672 0.200321 0.282939 1.10202 0.172751 
0.332216 1.25776 0.0931468 0.383425 1.16008 0.0369566 0.274959 1.1499 0.110636 
0.420488 1.15205 0.106667 0.26008 1.15203 0.208884 0.339801 1.10871 0.211552 
0.218272 1.25714 0.0332147 0.318823 1.1884 0.0547818 0.319204 1.15842 0.173851 
0.244121 1.20054 0.164882 0.287621 1.18429 0.26484 0.23846 1.22361 0.0940375 
0.370673 1.234 0.0356631 0.236168 1.23115 0.236818 0.215095 1.25818 0.149976 
0.540796 0.471241 0.0302097 0.611332 0.296147 0.094072 0.595112 0.359771 0.120459 
0.596691 0.34815 0.196583 0.575812 0.389576 0.266496 0.609612 0.315548 0.261301 
0.540239 0.47113 0.210018 0.508213 0.559064 0.219378 0.60322 0.329321 0.0358989 
0.566393 0.418208 0.159062 0.483048 0.62637 0.0390843 0.610279 0.477475 0.0479265 
0.545609 0.475882 0.098529 0.549252 0.448908 0.268474 0.564771 0.57361 0.262774 
0.527025 0.513406 0.159498 0.549739 0.670083 0.0308566 0.444899 0.71266 0.0780686 
0.5173 0.69893 0.105595 0.470682 0.755168 0.178173 0.550397 0.549072 0.100666 
0.523472 0.660345 0.266704 0.445846 0.698156 0.146598 0.414112 0.779613 0.214268 
0.500697 0.682701 0.170807 0.553669 0.578536 0.168507 0.493547 0.782491 0.0917046 
0.534527 0.762578 0.146108 0.457508 0.816841 0.0363739 0.508145 0.726428 0.0397528 
0.483847 0.81957 0.150706 0.435839 0.837124 0.113457 0.363719 0.896181 0.269731 
0.498701 0.771142 0.260787 0.538497 0.619388 0.219036 0.562752 0.749378 0.220364 
0.467507 0.817365 0.213608 0.505928 0.708047 0.227283 0.459805 0.891496 0.0402885 
0.520531 0.856202 0.0357974 0.534818 0.79332 0.0326222 0.454231 0.877726 0.177861 
0.494086 0.8522 0.0957748 0.465956 0.871915 0.260664 0.438202 0.805922 0.269013 
0.416076 0.953328 0.0373631 0.373259 1.09161 0.0325886 0.465168 1.00631 0.0331291 
0.399626 0.998992 0.0944265 0.414372 0.950042 0.150132 0.46703 0.965674 0.0911254 
0.485559 0.943039 0.26113 0.41962 0.974268 0.261481 0.534822 0.985598 0.2689 
0.458635 0.955248 0.202945 0.383022 1.02674 0.0323973 0.365166 1.05734 0.0853246 
0.463269 1.03365 0.0904162 0.36229 1.06469 0.158611 0.394942 1.00621 0.196944 
0.441283 1.05238 0.264237 0.37667 1.03054 0.267358 0.483485 1.00578 0.235642 
0.455513 1.13834 0.0385399 0.470056 1.08479 0.123032 0.426749 1.04375 0.13877 
0.361249 1.09196 0.269156 0.524514 1.18132 0.176581 0.490372 1.10476 0.267884 
0.40799 1.08978 0.213073 0.429674 1.13496 0.264219 0.445137 1.12242 0.166636 
0.35915 1.16208 0.260112 0.509904 1.18888 0.038087 0.497396 1.14885 0.121078 
0.435555 1.20815 0.0341934 0.368835 1.20397 0.101407 0.380818 1.13498 0.166259 
0.339009 1.2384 0.260952 0.452792 1.16959 0.207642 0.401869 1.20846 0.220782 
0.469513 1.19207 0.266121 0.486398 1.25689 0.0362705 0.311914 1.21409 0.137434 
0.459702 1.25076 0.226757 0.300088 1.21459 0.204162 0.47277 1.21469 0.169838 
0.372181 1.23175 0.16361 0.63964 0.231389 0.17859 0.564489 0.411908 0.0315353 
0.659965 0.193108 0.0554397 0.661317 0.287547 0.212664 0.639857 0.241867 0.26351 
0.668939 0.174462 0.206857 0.642892 0.22306 0.114791 0.6321 0.407806 0.0363386 
0.59267 0.42451 0.089437 0.526713 0.510549 0.265844 0.604397 0.488827 0.26279 
0.617379 0.291101 0.1588 0.638747 0.377864 0.24538 0.613771 0.461026 0.137145 
0.587007 0.548085 0.0375183 0.660491 0.424489 0.102015 0.533528 0.637551 0.132277 
0.603682 0.529472 0.146503 0.574629 0.526192 0.211531 0.591898 0.434258 0.22042 
0.613223 0.625305 0.266298 0.603486 0.71988 0.0390326 0.555105 0.611513 0.0649578 
0.568672 0.735976 0.0983297 0.565884 0.699642 0.157177 0.599699 0.71146 0.268228 
0.590329 0.635797 0.174074 0.642784 0.642769 0.210765 0.572131 0.673414 0.224308 
0.596248 0.76042 0.159926 0.58651 0.667343 0.0962078 0.639671 0.789061 0.0390298 
0.561223 0.798315 0.0907841 0.541868 0.815371 0.189838 0.544949 0.833178 0.26183 
0.615724 0.775966 0.265249 0.516338 0.874741 0.210231 0.624985 0.710636 0.200366 
0.600394 0.823542 0.221572 0.584823 0.83834 0.0361769 0.560648 0.863055 0.0933201 
0.56531 0.911995 0.0397005 0.503104 0.945762 0.0315426 0.552062 0.910569 0.260439 
0.597985 0.968386 0.265549 0.527994 0.864043 0.14663 0.505459 0.925604 0.173676 
0.534668 1.00533 0.0510149 0.522382 0.918518 0.107489 0.473525 1.06064 0.188819 
0.467687 0.996873 0.154697 0.536792 0.990049 0.138862 0.517956 1.0482 0.269179 
0.571272 0.946263 0.192741 0.436207 1.06771 0.0347794 0.539905 1.1266 0.0335714 
0.573006 1.06637 0.0351734 0.503829 1.06724 0.0328708 0.552099 1.10863 0.0954073 
0.522633 1.05126 0.104951 0.543528 1.01014 0.209566 0.502588 1.12684 0.205549 
0.537799 1.23512 0.089006 0.573523 1.21233 0.0322874 0.562743 1.17817 0.123614 
0.523187 1.09301 0.152469 0.604303 1.0885 0.268672 0.539221 1.23941 0.159048 
0.534004 1.21394 0.238292 0.565536 1.13236 0.180596 0.558341 1.07461 0.21431 
0.553925 1.13887 0.259209 0.639066 1.20817 0.0433839 0.621056 1.21083 0.110708 
0.463957 1.21636 0.100674 0.644658 1.23828 0.224493 0.594907 1.20075 0.186386 
0.757775 1.18778 0.207939 0.679053 0.130707 0.0407564 0.69343 0.119224 0.112575 
0.721562 0.0321996 0.192999 0.681936 0.134437 0.265516 0.69814 0.0937854 0.181171 
0.636822 0.26273 0.0387348 0.694653 0.315753 0.0396724 0.702679 0.225258 0.149238 
0.704102 0.267115 0.267353 0.640365 0.406865 0.174803 0.69478 0.200211 0.267451 
0.678207 0.327781 0.266704 0.66234 0.336963 0.137902 0.680597 0.459472 0.0425221 
0.65911 0.495658 0.0972928 0.652403 0.358267 0.0778593 0.685862 0.467491 0.158454 
0.648763 0.462708 0.216744 0.680818 0.279016 0.10464 0.730825 0.433498 0.19954 
0.690678 0.353953 0.201216 0.611139 0.646177 0.0351646 0.662274 0.526293 0.03494 
0.635019 0.558545 0.0889823 0.595178 0.600324 0.120117 0.647804 0.608797 0.156535 
0.663668 0.684595 0.262135 0.637772 0.547396 0.269081 0.686729 0.583195 0.207126 
0.616651 0.579288 0.208145 0.672075 0.54822 0.149866 0.677136 0.517049 0.206244 
0.628139 0.716419 0.122606 0.657957 0.656484 0.0910641 0.696823 0.57333 0.0971322 
0.708203 0.628667 0.138125 0.717111 0.64801 0.207018 0.660675 0.824233 0.268703 
0.6647 0.673019 0.159266 0.62384 0.803494 0.116768 0.647088 0.877961 0.0390987 
0.690072 0.76302 0.0797321 0.707901 0.704153 0.0844155 0.679953 0.763889 0.149164 
0.636647 0.776881 0.203006 0.69656 0.716417 0.204723 0.61364 0.869896 0.265678 
0.582685 0.873383 0.181762 0.614695 0.970961 0.0372505 0.668627 0.985945 0.0763114 
0.628924 0.869666 0.105975 0.643132 0.928036 0.089027 0.586908 0.90993 0.126255 
0.609886 0.968666 0.138959 0.633967 0.985702 0.209511 0.675868 0.850729 0.148014 
0.635996 0.923808 0.233817 0.643781 0.867285 0.206585 0.633346 0.91804 0.16915 
0.630517 1.10838 0.0300653 0.641998 1.04142 0.0403688 0.694544 1.09369 0.0358784 
0.573935 0.958209 0.0912679 0.593755 1.02248 0.0955152 0.667374 1.04341 0.115852 
0.577893 1.03153 0.260382 0.613389 1.02669 0.161724 0.671453 1.03252 0.184327 
0.616602 1.09098 0.0912355 0.62143 1.14438 0.139063 0.696789 1.16661 0.0370852 
0.595844 1.15567 0.0661466 0.582823 1.07998 0.147193 0.623745 1.05699 0.21715 
0.741312 1.13318 0.0833502 0.636046 1.13375 0.223723 0.660968 1.09361 0.167487 
0.603782 1.19728 0.263609 0.749109 1.21395 0.033559 0.791851 1.18426 0.101052 
0.689459 1.1704 0.10615 0.672484 1.19945 0.168344 0.677359 1.18854 0.260191 
0.722266 0.0831988 0.034163 0.754225 0.12205 0.0763658 0.718279 0.0488019 0.117121 
0.78403 0.0584583 0.125085 0.723105 0.0423207 0.26252 0.734802 0.105679 0.241879 
0.707742 0.242325 0.0350578 0.75094 0.18208 0.0391989 0.768633 0.266011 0.0304516 
0.737288 0.177478 0.110588 0.728151 0.156797 0.173002 0.755555 0.167451 0.2634 
0.774199 0.230479 0.156165 0.76966 0.244252 0.26218 0.730701 0.210367 0.212506 
0.702986 0.391299 0.0363958 0.764308 0.327701 0.0319883 0.720423 0.333316 0.103095 
0.74663 0.252759 0.0930856 0.732287 0.419162 0.0925089 0.764481 0.374289 0.126394 
0.70361 0.387157 0.14076 0.747642 0.320736 0.263464 0.734678 0.282488 0.198623 
0.697043 0.419809 0.260498 0.726525 0.514254 0.0857302 0.752895 0.463724 0.0378095 
0.797373 0.485871 0.0861396 0.754373 0.469496 0.133719 0.789467 0.420152 0.169504 
0.674211 0.494491 0.266634 0.803859 0.511427 0.264173 0.773994 0.40225 0.260577 
0.740181 0.481163 0.247359 0.717904 0.548735 0.263651 0.669127 0.59992 0.0391269 
0.694838 0.665296 0.0315336 0.736529 0.534291 0.174864 0.760966 0.582381 0.121098 
0.678589 0.614225 0.2674 0.752374 0.585467 0.217234 0.743132 0.622801 0.267491 
0.673493 0.724454 0.0330536 0.747627 0.74976 0.111318 0.758657 0.693185 0.0384577 
0.72791 0.755334 0.0312099 0.748977 0.657128 0.0969754 0.739831 0.694378 0.261128 
0.687403 0.818113 0.208655 0.72621 0.693518 0.145926 0.750997 0.745677 0.178108 
0.693739 0.745508 0.269539 0.701982 0.934885 0.0399802 0.716832 0.854499 0.0346144 
0.681166 0.826284 0.0846602 0.693915 0.889467 0.0957608 0.739235 0.810773 0.159741 
0.739023 0.839991 0.260086 0.734222 0.777738 0.228298 0.681292 0.886602 0.265523 
0.713217 0.87845 0.206453 0.687691 0.95177 0.26891 0.717673 1.02172 0.0398205 
0.725223 1.07011 0.0897215 0.726725 0.954515 0.107497 0.689507 0.949249 0.205712 
0.672021 0.976475 0.138596 0.693824 0.919291 0.150983 0.729887 1.01078 0.155814 
[...]
POINT_DATA 1274
FIELD FieldData 10
VELOCITY 3 1274 double
0.00044485540752 -0.00069278284814 -0.00034199524181 -3.0409858899e-05 -0.00049885022516 0.00023959430116 0.00019215083882 -0.00043795102012 -3.0911910432e-06 
-0.00052022591203 -0.001126230455 0.0015508986018 0.00029709473824 -0.00088481816581 -0.00019092508648 0.00018858706906 -0.00051965725538 0.00030699914115 
0.0002910813838 -0.00014240846446 0.00060738269521 -0.00047217848608 -0.00050196532795 3.060517116e-06 0.00042721706277 -0.0011129951973 -0.00027876619298 
0.00035067742702 -0.00048095671451 0.00039645175108 0.0003680828027 -0.00080112414544 -0.00029147987591 0.00032132735442 -0.00090378161028 -5.0999894249e-05 
0.0004440360707 -0.0010283942654 -2.4161588581e-05 0.00059991517596 -0.0013052394119 0.00092503825701 0.00034234435112 -0.00065646915294 -9.1205522508e-05 
0.00028610580549 -0.00076255821674 -0.00037760728071 0.00035665970467 -0.00086375953313 0.00032316649579 0.00055465585632 -0.0014654669079 -9.1458309667e-06 
0.00066127173905 -0.00094911346671 -0.00020828788274 0.0001864068191 -0.00069942175973 -0.00039963488874 0.00056471839742 -0.0013970187105 0.00051791943064 
0.00017031457962 -0.00070356695391 -0.00021746919468 6.2889940352e-05 -0.00012808641286 0.00024031511502 0.00013159137712 -0.00029380990189 -0.00031899707333 
0.0006267390124 -0.0014915262912 0.00042580942726 0.00021545847197 -0.00049638199899 0.00058648533045 -1.9105489854e-05 -0.00010828952595 -3.8471645062e-05 
0.00067910805583 -0.0015893701404 -9.3513469143e-06 0.00050353904681 -0.0013179079482 -0.0017706655756 0.0002060191403 -0.00084075521683 -0.00012927739506 
0.00021643630411 -0.0018986953654 -3.1084210141e-05 0.00021197141397 -0.00040299591154 -5.579616536e-05 0.00021836223305 -0.00056512418232 -0.00047069338117 
0.00072749300947 -0.0013634061916 -0.00048081147806 0.0010989972116 -0.0016211142376 0.00052143565703 0.00038190202144 -0.00082312470854 -0.00012483733406 
0.00059544304846 -0.0014374631222 -0.00033133667416 0.00024405707475 -0.00048427297976 -0.0003733743947 -0.00022534091356 -0.0011888847375 -0.00024958820729 
0.00023918931687 -0.00054237293953 4.4572353866e-05 0.00079246228672 -0.0016811475912 -0.00032412568141 -5.1324153222e-05 -0.00075130445922 0.00017367745096 
0.00022258927035 -0.0005882704136 -0.00047649568644 -3.3458517972e-05 -9.6499731663e-05 6.5714837683e-06 0.00033785612147 -0.00095994779517 -0.00026124673091 
0.00072326704485 -0.001442374397 2.3536717935e-05 8.3957715776e-05 -0.00018066047179 -0.00046884933227 0.00023894268443 -0.00057706763372 -0.00053541264093 
-0.0040606727062 0.00309395258 2.0126600194e-05 4.2868652379e-05 -0.00077387293757 0.00014816530233 0.00069839692553 -0.0008081100529 0.00043752149511 
-0.00029676577901 0.00030869549478 0.00057876610909 0.00013313309742 0.0010083252354 0.00078132280256 0.00035699215179 -0.0011506977836 0.00011435601063 
0.00027741289352 -0.00058903791398 0.00036270388748 0.00010610394708 -0.00024313563845 -8.9834442643e-05 0.00017989010011 -0.00042056103935 -7.5763156965e-06 
0.00026627900913 -0.00070250614185 0.00064188965436 0.00041705969065 -0.00089904215948 0.00052609253374 -0.00063984966568 -0.0012336754153 0.00049511678805 
0.0004493660764 -0.00046314573102 0.00012217999335 0.00038036879417 -0.00058470080848 -0.0004353350612 0.00045008936155 -0.0010229606151 2.9622251971e-05 
0.0003031856542 -0.00057947576954 -0.0001077527832 0.00066910054489 -0.00018134480138 -0.00013637634416 0.00023944885682 -0.00051970826051 0.00026425055259 
6.5676187704e-06 -0.00042460784046 0.00030102507768 0.00089310270191 -0.00085406739846 0.00047855944086 0.00063866904673 -0.00065763186408 -0.001071201615 
-0.00017942083795 -0.00087507066724 -1.7272459632e-05 0.00024713278834 -0.00019377720176 -0.00017130652579 0.00024828246632 -0.0008643571421 0.00010427879362 
0.00022139241266 -0.0014737409397 -0.00057780567975 -0.00043476711886 -0.00054586075804 -0.00073803477401 0.00025320994453 -0.00097552739034 0.00026026234062 
0.00018001397234 -0.00057705935902 -0.00035698690408 0.00065451652281 -0.001140560346 -7.5434126389e-05 0.00046094990657 -0.00066618436803 4.6118679039e-05 
0.00039259205805 -0.00046839618119 2.685227511e-05 0.00078622243026 -0.00071760367246 -0.00046720017633 0.00036496250019 -0.00094536338366 -2.5266667278e-05 
0.00015152247082 -0.00036706726806 -8.7796937816e-05 0.00010700327668 -0.0011782243723 0.00013755700203 0.00037016757833 -0.0011915536833 -5.6658089202e-06 
-0.0017642444794 5.5050038941e-05 -0.00079679636176 8.4209386178e-05 -0.0010110271801 0.00023015955718 3.4307261644e-05 -0.00097386357117 3.9055203848e-05 
0.00011806924673 -0.00097007541871 -0.00062318382669 0.00051625064971 -0.00097685611648 4.5953945023e-05 0.00015085281359 -0.00045720489375 -0.00040488388575 
0.00016633277995 -0.00085204817926 -0.0010651710395 -0.0017723964698 -0.00070143530092 -2.9212254198e-06 5.688716522e-05 -0.001006664742 -7.0699897397e-05 
0.0007737913924 -0.00046711922022 -5.1007228055e-06 0.00031849723511 -0.0015449308703 4.1031252152e-05 0.0011841558004 -0.00059169194575 6.4038337559e-05 
0.00069635222793 -0.0013104277503 0.00048640450883 0.0011016094119 -0.0010853244608 0.00090670842379 0.000851001562 -0.00091492955869 4.1938704009e-05 
-0.00063557899784 -0.0010576900191 0.0003821954203 -0.00068349745811 -0.00094122401333 0.00024760526368 -0.0001071216336 -0.0010265251834 1.3838554629e-05 
0.001591794184 -0.0029442638183 -0.0010429892895 0.0016337543847 -0.0024119607983 3.132858221e-05 2.4493983841e-05 -0.001897301524 -0.00028585796233 
0.00096126715481 -0.00087984978477 2.2994625968e-05 0.00024016409848 -0.00085345569262 -0.00045982703023 0.00027209506098 -0.00067076431724 -0.00019597958083 
7.0988012423e-05 -0.00055118119381 -1.0703580783e-05 0.0001069737177 -0.00037206885189 -4.6503814078e-06 -0.00064009551605 -0.0010380147016 0.00042812358389 
0.0011920212044 -0.0011808998425 -9.6631331276e-06 0.00067518292073 -0.0011083761998 0.00032630369614 0.00032712412979 -0.00084279708453 0.00047160472723 
-0.00020228669703 -0.00052448006124 8.9651099735e-05 0.00015452624644 -0.0019359984821 8.3504642002e-05 -0.00046205860643 -0.0011582530189 5.9663273027e-06 
-0.00034046416056 -0.00071998594931 2.8876132043e-05 -0.00032113945239 -0.00071667525388 6.3369509856e-05 -0.00020241242569 -0.0011373733522 0.00017315294605 
-0.00016949714245 -0.00046334269047 -2.6365192906e-05 0.00056658019465 -0.0004534188524 2.5094520376e-05 0.00059754648552 -0.0010968053949 -0.00064316478683 
0.00077533105848 -0.0012376583954 -1.234216885e-05 0.00054877028246 -0.0014225639522 -6.7283125044e-05 -6.59718511e-05 -0.00095384513783 0.00056220755528 
-0.00014551659544 -0.00046919469588 1.2506819762e-05 1.4874225451e-05 -0.00092713819522 -4.5737350856e-05 0.0002822630783 -0.00060301177261 0.00037027102983 
-0.00073973971712 -0.00042731042559 -3.1984043175e-05 0.00013158447157 -0.00060192548473 -1.0811922606e-05 0.00062073683051 -0.00098650695184 -0.00013046566943 
0.00037858514652 -0.00056997563537 -0.0003708512227 0.00013585014664 -0.00049868199385 -0.00019957870592 0.00069552467549 -0.0010901560495 3.194975032e-05 
0.00072325088136 -0.0013119696574 -0.00012533383923 -2.2319758902e-05 3.9293305906e-05 0.00063383194275 -0.0003641373589 0.00088448022008 -0.00030175951867 
-0.00019221410548 -0.00016448609017 0.00069330393525 0.00061576317443 -0.00072911674723 -0.00018216335466 -0.00010732704376 0.00033372214363 0.00078589414558 
0.00014854276988 -7.6873714061e-05 0.00025767908032 4.4657757482e-05 -0.00036166201353 0.0010271922417 -0.00017497337633 -0.00091044294162 -4.4115983527e-05 
-0.0014512628856 -0.0015990702258 -0.00049233983039 9.1511441575e-05 -0.00024637024072 2.4839171663e-05 0.00064600965183 -0.0011246277294 -0.00016913361301 
-0.00021672622536 0.00027068802261 0.0004693406562 0.00017786068482 -0.001034130222 0.00094374972575 -0.00032737229945 -0.00031431628577 -0.0016059738344 
0.00037445692672 -0.0010137164787 -3.5650047787e-05 -0.00073052781104 -0.00098395333374 5.1087544168e-05 0.0010525131035 -0.00099788398054 -0.00078276896524 
0.00053717043099 -0.00047781482376 0.00070330301594 0.0003752913852 -0.00091437799022 -0.0004372454871 0.00073326303967 -0.00027572891919 -0.00023161107089 
0.00044624236031 -0.0014937769443 -4.2438095133e-05 -9.9821974081e-05 -0.0010303175876 -2.7901806414e-05 -0.0001977549794 -0.00021849882353 8.8313941569e-05 
0.001307263423 -0.00060025090045 0.00077484871365 0.00012905190398 -0.0010399332113 0.00069295731703 0.00029869350638 -0.00097793727522 -0.00010490036427 
0.0007119122556 -0.00091716743178 0.00012649510402 0.00067396439287 -0.0010373242893 -3.2341826058e-05 0.00018320107614 -0.0013001152251 0.00037449960734 
-0.00069480802955 0.00023269002255 0.00064610867947 0.00038701311243 -0.00040321788457 -0.00018023402392 -0.0010093077362 -0.00052998863527 -2.7185636713e-05 
4.3173644585e-06 -0.00011577041695 0.0004728481271 0.00041808785471 -0.00071563157885 0.00011836352221 0.00048149977377 -0.00055255697681 -2.1449246346e-05 
2.6910946112e-05 -0.00060419149536 9.5617385718e-05 -0.00010415040034 -0.00093442200602 -1.0219685944e-05 0.00011337961714 -0.0010359444771 0.00053880084613 
0.00039511684403 -0.0011919172314 0.00013863701675 -0.00017307386734 0.00026712163633 -0.003451781499 0.00089531613581 -0.0021468250909 -0.0020207311362 
0.0012890891897 -0.0018042361809 6.6539038217e-05 0.0012722477766 -0.001854600894 -8.9184094114e-06 -0.00042461215386 -0.00035990544421 -7.791183425e-05 
-3.6764539721e-05 -0.00081278221701 -6.3214978498e-05 0.0015689627024 -0.0019601107135 -0.0017633015149 0.0014617800891 -0.0020351232342 -0.002172621742 
0.00084939507065 -0.0015495971512 -0.00014832593359 0.00022851119042 -0.0025721934046 -0.0025106137702 0.00051249011775 -0.00088268450475 0.0004190900277 
0.00084504553528 -0.00073600992375 0.00040668556978 0.00051907236592 -0.00087918482411 -0.0013275441294 -8.5907645296e-05 -0.0010721936901 -8.3161886078e-05 
-0.0010519928355 -0.0017126422478 -0.00087716473169 0.00043346901961 -0.00094346053993 -5.0991159312e-05 -0.00033176367325 -0.00088523866748 -4.8291081015e-05 
-0.00023233592681 -0.00090758765563 7.0312314685e-05 0.0004813294011 -0.0017359973615 2.930075738e-05 0.0005193055315 -7.1708282772e-05 5.9923199369e-05 
0.0010639969139 -0.00047585223081 -0.00080649136921 -0.00066898183631 -0.0014510238443 -0.00082991455313 0.00014045630795 -0.00061919160292 6.6975534419e-05 
0.00036883357529 -0.00038455565151 4.882829616e-05 5.1161538111e-05 -0.00098996967592 2.3276876765e-05 0.00047375283771 -0.00083907785437 -0.00069850426526 
7.057641416e-06 -0.0010771165746 -0.00017335690555 0.00017283502302 -0.00082274465887 -5.120731397e-05 -0.00087345251369 -0.0016284347415 0.00015632522041 
-0.00059880384421 -0.0010493266324 -0.00028194768956 0.0004669618634 -0.0016450805661 0.00048945527811 -0.0016308710274 -0.0013992842943 0.00023685227167 
-0.00031764158113 -0.0012603781079 0.0006446663175 8.8123681497e-05 -0.00091208960459 -0.00024962136429 0.00067567225576 -0.00084831151139 -6.411753904e-05 
0.00065963105248 -0.0016436890701 5.8640646755e-05 -0.043106671061 0.0052389009212 0.049264415168 -0.00044734996835 -0.0011908041846 -9.2398889524e-05 
-0.00019477925351 -0.0024568730001 0.0012377365937 -6.6357574041e-05 0.00011152150652 -0.00039319460798 -0.00027541190569 0.00061114495216 0.00025259700895 
7.8716507545e-05 1.7032138344e-05 0.00015448492544 9.3804216136e-05 -0.00090056089061 -0.00048818433304 -0.00022930793464 0.00060602298871 0.00034641367239 
0.00077224183317 -0.00041587168326 0.00012705792349 0.00085451470004 -0.00020383689652 -1.1900596589e-05 -0.00027542377646 2.0853693187e-05 0.00098408329082 
0.00020531129974 -0.00076302611995 -0.0008295820679 -0.00026140341215 -0.00051024106655 -0.00024263706826 -9.3346091273e-06 -0.00048120483098 -0.00010022394856 
0.0021743724918 0.00081174802209 0.00047208093987 -0.0003593966868 -0.00043537295599 -5.9131859787e-05 -0.00051608998717 -0.0010160770478 -0.00044457879224 
-0.00051738556388 -0.00082153300362 -0.00036458046085 -0.0002336992753 -0.001171754758 -0.00022485038343 0.00060786704115 -0.0007573414081 -0.00050137135949 
0.000903192464 -0.000950464282 4.1042955086e-06 0.00087671560614 -0.00069356965754 -0.00024219171979 0.00011216332949 -0.00088308045758 -9.8502353941e-05 
-0.00021582773083 -0.00031664545747 -0.00011362307669 0.00053101125961 -0.00073018676304 0.00024960798891 -0.0011622979704 -0.00098982588996 1.3245899221e-05 
-5.0588436481e-05 -0.00063183372241 0.00064323062667 0.00036545034297 -0.00044956939614 -0.00045949244092 1.8782740142e-05 -0.0016790975303 0.00049204025648 
-0.0002249228336 -0.00068830156592 2.6047948063e-05 0.00039367682088 -0.00092189679438 -1.4599393251e-05 0.0010178402616 -0.0010086480192 9.9029967302e-05 
0.00087615493249 -0.0011070093133 0.00077732680077 0.00063300422596 -0.00073457636215 7.9947730182e-06 0.00089124816629 -0.00098579746477 -8.3494781926e-05 
1.8193716018e-05 -0.0013142236606 -0.00018735810972 0.00019878739831 -0.0014694031584 0.00042032591047 0.00026321932099 -0.001553209063 -0.00042933012288 
-0.00017831134317 -0.0011489827649 0.00052764000081 -1.2444836273e-06 -0.0004860695516 -0.0001776568716 0.00020432767222 -0.00086053742693 0.00015459974234 
0.00020461578047 -0.00075639985143 0.0003595552919 0.00032443265591 -0.0010193751868 0.00018893793217 0.00093061332372 -0.0016334050466 4.0691568439e-05 
-0.0008599256262 -0.0010968336526 -0.00050199490905 2.4286384195e-05 -0.0012792011579 0.00049335446202 0.0001960992812 -0.0011981958751 -0.00030785284399 
0.00031835946485 -0.001544630848 -0.00021035873288 -7.6579964354e-05 -0.00069753524199 0.00015086783405 6.7229845497e-06 -0.00098528854887 4.849505974e-05 
0.00098364372287 -0.0019525790491 -0.00083501615599 0.00022389150329 -0.00092900473336 1.6529815615e-05 5.0365519117e-06 -0.00075528353569 0.00033276974227 
0.0011026786396 -0.00092347615175 0.00025061764545 0.00055604876784 -0.00080889568137 -0.00074179068804 -0.00011957198921 -0.0016229609378 -0.00094181882205 
0.00015340623983 -0.00070972214146 0.00027550555354 0.0006646865593 -0.00024093446765 0.00070302808546 0.001787233647 -0.0010604771056 3.0772331763e-05 
-0.00041952273354 -0.00087087188405 -9.430545598e-05 0.0008494968671 -0.00074605339896 -0.0001051964873 -0.00096242765162 -0.0023039135994 3.961909381e-05 
-8.0471976893e-05 -0.0007218654443 -3.4173309159e-05 -0.00018267705852 -0.00081891429846 -0.00022279298493 -0.00016964390261 -0.00079298590741 5.7756396234e-05 
0.0009339619028 -0.0016159865922 -0.00024039821342 0.00041056063977 -0.0010820100068 0.00036319611384 0.00046491054562 -0.00066174553931 0.00032925293227 
5.4037375288e-06 -0.00064237262012 0.00030479603222 0.00062287889219 -0.00083806743054 0.0002742016357 0.00065146948142 -0.00091701644896 0.00017664855849 
0.00037678966669 -0.00083263339181 0.00012848114995 0.0003782106842 -0.00084881922646 -6.2752818408e-05 0.00023404741366 -0.00078684026347 -6.4000933731e-06 
0.00023545563765 -0.0012937113408 -0.00073277851229 -4.1745667109e-05 -0.0014276898665 -0.00035916387953 0.0005899862346 -0.00051357853614 1.4655794953e-05 
-0.00019549415783 -0.00073117033819 0.00044067939198 -0.00094947122908 -0.00026230462531 -0.00034136250694 0.00026247471291 -0.00062971729294 0.00038991009778 
-0.0006180084697 -0.00097383536001 -6.7030482332e-05 0.00042178337658 -0.00098218200394 -1.6537534104e-05 -0.001159393956 -0.0020814580679 -0.00019786648392 
-0.00041996016994 -0.00065564260149 -6.3651053023e-05 -0.00044515828636 -0.00044621719316 -0.00018246227533 -0.00086078243016 -0.0025290169895 -0.00031113804486 
0.00065409584108 0.00051660321013 0.00018890049095 -0.00031806041591 -2.6080697534e-05 0.00012700511481 -0.00023575402783 0.00066600521394 0.00067809396348 
-0.00011936059982 -0.00078428641504 0.0011041468899 0.00029639792978 -0.00077823531517 7.9092835362e-06 0.00094433618254 0.00045646119957 0.00090543937921 
-0.00037467399417 0.00022014885655 0.0015852380238 0.00030652691327 -0.0003284657228 -0.00045384121571 0.0011981140575 -0.00011394691771 -0.0012844294919 
-0.00024648451665 0.00030579026965 -7.996235957e-05 -0.00034462971208 0.0003834872546 -0.0014139779497 0.0004313874247 -0.00014217914999 -1.4364336885e-05 
4.1332717394e-05 -0.00049533985091 -0.00092588187097 -0.00022047022253 -0.0014973430963 -0.00051882082709 0.0010489024108 -0.0011273872891 0.0002162255303 
-0.00021341931002 -4.0886386692e-05 -6.1000854838e-06 0.00093101357293 -0.00026177293081 -0.00087174963398 -0.00047507881009 0.00043498591697 0.00041268696288 
0.0008656813409 -0.0010845104045 -0.0002947433892 0.00011468450976 -0.00047567256004 2.5639921105e-05 -3.2940468053e-05 -7.4819920635e-05 0.00057020002239 
-0.00035249931796 0.00049992300345 0.00059902412888 0.00021627511624 -0.00056785905884 5.2209384664e-05 0.00012381273428 -0.0011782001773 -0.00024908175892 
-0.00013415202042 0.00031714300755 -2.3169495304e-05 0.00018495186135 -0.00071417585411 0.0011264696854 -0.0008639713156 -0.00013821831494 0.0002294549417 
-0.00024395281141 -0.0017114792706 0.00040435432328 0.00078242036871 -0.00077103380628 0.00063737180174 0.0016409640519 -0.00095675463887 0.0012231376402 
0.00067253264505 -0.00052396455541 -2.6048173064e-05 0.00049007986234 -0.00031868284728 7.6803504503e-05 -0.00042295297715 -0.0014871287115 -0.00019094051111 
0.00054426427935 -0.00034192418352 -0.00068009962975 0.00040467181157 -0.00054446162825 1.4465244215e-05 9.1316747204e-05 -0.0010918289189 9.8132516123e-06 
-0.00049133834665 -0.00075800357093 9.3810135097e-05 0.00058384268114 -0.0010985508163 0.00050046568206 -1.2203426396e-05 -0.0002975365852 0.00082949345166 
0.00037658168978 -0.00086477679945 -6.4277606288e-06 0.0011338612249 0.00039688199207 -0.0014950578713 0.000548867673 -0.0018082078249 1.5792646289e-05 
-0.0003240412065 -0.00037021053443 -0.00062887033336 8.9584502088e-05 -0.00097385047753 0.00055627891539 -0.00041950058539 -0.0012362077229 4.6486524103e-05 
-0.00051086373427 -0.001672945958 0.00026615265194 -0.0001042728035 -0.00064668283806 0.00015374688332 0.00034569364767 -0.0012883941611 -0.00039180138254 
0.00034245094159 -0.0012193704364 0.00017219401399 0.00034848499773 -0.0011801383071 0.0003715591441 0.001039942195 -0.00062700322781 0.0010127840948 
0.00024675919303 -0.00095104085385 1.5563980357e-05 -0.00034268737306 -0.00034430480366 -1.2802251733e-05 0.00038948949024 -0.0012935273157 -1.2982052647e-05 
-5.002941474e-06 -0.0012555731405 -0.00019806716363 0.00017317659724 -0.0014220259587 -0.00059150933535 -0.00032658355851 -0.00089543322797 -0.00047149344502 
-0.0013283994343 -0.0015602572907 4.2976107431e-05 -0.00077421831564 -0.0022386205565 0.0010143740975 -6.0212235467e-05 -0.00080520525386 -0.0003831176166 
-0.00069144043788 -0.00050451423561 0.00060648824208 0.00059450436731 -0.00067001743693 -5.5352403203e-06 -0.00012103839824 -0.00072505044465 -6.8640075224e-05 
0.00040417033319 -0.00096307878659 4.000954606e-05 0.00032147685516 -0.0020072676719 0.00026254097816 -0.00049778705575 -0.0020600245586 1.5068263137e-05 
6.221702895e-05 -0.00070532021005 0.00015559848914 -0.00098485795292 -0.001004571784 -0.00040775111576 0.0011072400423 -0.0021654945184 -0.00024571273664 
-1.7176751198e-06 -0.00087871680907 3.5168605868e-07 0.00029700774647 -0.0017010309397 0.00020646518883 0.00016996978284 -0.0017258055807 0.0001189864321 
-0.00021731814713 -0.0011879994911 -6.1390089642e-05 -6.1403004718e-05 -0.0017876355153 2.3113048371e-05 -0.0014311046708 -0.0022261280549 0.00042613302412 
-0.00036177090249 -0.0019451071773 -0.00016119758864 -0.00037659627412 -0.00063654953411 -2.8629220734e-05 -0.00034237605435 -0.0017423955432 6.8708887062e-05 
0.0008299600909 -0.0014088181729 6.9833953205e-06 0.00099435623963 -0.00083666618104 0.00011475955211 0.0012002095657 -0.0014641513491 0.0004796278085 
8.6307394223e-05 -0.0013671291077 0.00032905543885 0.00085313235328 -0.0012620683545 -5.2280701303e-05 -0.0015890729957 -0.0037897590938 9.3954117257e-05 