# vtk DataFile Version 4.1
vtk output
ASCII
DATASET UNSTRUCTURED_GRID
POINTS 1274 float
0.511923 0.556427 0.0379521 0.468922 0.652649 0.105399 0.487156 0.599748 0.268458 
0.494164 0.588978 0.0995442 0.422941 0.757726 0.0323141 0.423929 0.769733 0.118981 
0.475064 0.638642 0.213065 0.459893 0.671911 0.268646 0.392877 0.847661 0.0595386 
0.397834 0.81414 0.163955 0.445061 0.701406 0.215353 0.431815 0.741218 0.265758 
0.361937 0.904977 0.0319703 0.342673 0.970828 0.0512204 0.380648 0.880055 0.146349 
0.394015 0.846316 0.232077 0.344468 0.959685 0.260021 0.312923 1.04179 0.0387198 
0.388781 0.916312 0.0869659 0.446574 0.90048 0.110295 0.331332 0.998388 0.129623 
0.40864 0.916935 0.218458 0.309849 1.03911 0.265122 0.351461 0.930821 0.188084 
0.28046 1.10464 0.0481617 0.327435 0.989128 0.200269 0.286035 1.10962 0.260298 
0.256759 1.16486 0.033664 0.355831 1.11819 0.105918 0.301194 1.07058 0.109798 
0.289456 1.25494 0.0382191 0.302284 1.0468 0.200327 0.282898 1.10212 0.172818 
0.332405 1.25862 0.0929539 0.383122 1.16032 0.0369566 0.274918 1.15 0.110697 
0.420363 1.15229 0.106746 0.260038 1.15213 0.208949 0.339825 1.10887 0.211595 
0.218235 1.25723 0.0332142 0.31862 1.18878 0.0549143 0.319221 1.15855 0.173867 
0.24408 1.20064 0.164943 0.287769 1.18432 0.264839 0.238424 1.2237 0.0940339 
0.370434 1.23438 0.0356902 0.235958 1.23166 0.236443 0.215061 1.25826 0.149974 
0.541578 0.470652 0.0302102 0.61128 0.296272 0.094049 0.595054 0.35991 0.120401 
0.596675 0.348188 0.196509 0.575794 0.389622 0.266496 0.609568 0.315653 0.261266 
0.54018 0.471271 0.210061 0.508183 0.559132 0.219406 0.60319 0.329393 0.0358989 
0.566335 0.418351 0.158998 0.482987 0.626518 0.039028 0.610351 0.477641 0.0478356 
0.54558 0.47595 0.0985349 0.549233 0.448954 0.268474 0.564725 0.573811 0.262775 
0.526989 0.513494 0.159491 0.549622 0.670123 0.0308554 0.44487 0.712727 0.0780073 
0.517281 0.699 0.105556 0.47061 0.755255 0.178143 0.550351 0.549139 0.100683 
0.523512 0.660506 0.266703 0.445823 0.698207 0.146607 0.414062 0.779735 0.21425 
0.500683 0.682858 0.170866 0.553628 0.578621 0.168532 0.493523 0.782633 0.0916733 
0.534467 0.762679 0.146105 0.457428 0.816979 0.036374 0.50814 0.726546 0.0397526 
0.483808 0.819661 0.150704 0.435803 0.837209 0.113448 0.363662 0.896321 0.269731 
0.498663 0.771217 0.260789 0.538489 0.619571 0.218996 0.562729 0.749504 0.220368 
0.467664 0.817416 0.213655 0.505872 0.708223 0.227339 0.459784 0.891631 0.0403257 
0.520526 0.856372 0.0358002 0.534717 0.793472 0.0326218 0.4542 0.877802 0.177893 
0.494064 0.852336 0.0958539 0.46626 0.872004 0.260665 0.438237 0.806057 0.269013 
0.415963 0.953397 0.0373642 0.373183 1.09182 0.0325887 0.464894 1.00641 0.0331263 
0.399528 0.999175 0.0943431 0.414228 0.950185 0.150027 0.466897 0.965784 0.0911181 
0.485632 0.94319 0.261024 0.419672 0.97438 0.261481 0.534844 0.985768 0.2689 
0.458387 0.955679 0.203048 0.382848 1.02706 0.032397 0.365143 1.05758 0.0853563 
0.46323 1.03377 0.0904137 0.362258 1.0648 0.158671 0.394914 1.0063 0.196961 
0.441276 1.05244 0.264237 0.376659 1.0306 0.267325 0.483547 1.00594 0.235575 
0.455242 1.13859 0.0385403 0.469987 1.08495 0.122953 0.426688 1.04386 0.13874 
0.361328 1.09205 0.269156 0.52456 1.18158 0.176793 0.490613 1.10499 0.267883 
0.408007 1.08989 0.213092 0.42983 1.13502 0.264219 0.445146 1.12257 0.166614 
0.359317 1.16217 0.260112 0.509781 1.18897 0.0379295 0.49722 1.14907 0.121418 
0.435257 1.20839 0.0341937 0.370209 1.20541 0.0994066 0.380821 1.13509 0.166241 
0.338747 1.23837 0.260951 0.452926 1.16972 0.207624 0.401194 1.208 0.219254 
0.469807 1.19204 0.26612 0.486245 1.25697 0.0363649 0.313484 1.21364 0.136526 
0.462173 1.25119 0.226974 0.299906 1.21473 0.204038 0.472768 1.21481 0.16974 
0.373666 1.23296 0.161709 0.639641 0.231388 0.178487 0.564551 0.411759 0.0315352 
0.659954 0.193133 0.055302 0.661285 0.287613 0.212651 0.639823 0.241948 0.26351 
0.668923 0.174499 0.206844 0.642909 0.223016 0.114694 0.63218 0.407959 0.0363381 
0.592734 0.424672 0.0894216 0.526694 0.510594 0.265844 0.604279 0.489018 0.26284 
0.617372 0.291118 0.158763 0.63871 0.377915 0.245316 0.613834 0.461098 0.1372 
0.586945 0.548219 0.0375178 0.660547 0.424575 0.102043 0.533466 0.637653 0.132336 
0.603618 0.529528 0.146535 0.57453 0.52636 0.211553 0.591793 0.434315 0.220398 
0.613184 0.625497 0.266299 0.603516 0.720016 0.0390346 0.555078 0.611602 0.06502 
0.568685 0.736216 0.0982964 0.565845 0.699796 0.157091 0.599697 0.711606 0.268228 
0.590212 0.635932 0.174029 0.642636 0.643043 0.210736 0.572141 0.673585 0.22428 
0.596191 0.760579 0.159921 0.586449 0.667409 0.0962369 0.639817 0.789135 0.0390282 
0.56121 0.798412 0.0907492 0.541813 0.815478 0.189834 0.544898 0.833261 0.26183 
0.61569 0.77612 0.26525 0.516348 0.87489 0.210194 0.624961 0.710813 0.200278 
0.600341 0.823738 0.221544 0.584855 0.838305 0.0365621 0.560546 0.863381 0.0934856 
0.56515 0.912287 0.0397004 0.502923 0.946017 0.0315426 0.5521 0.910644 0.260437 
0.597989 0.96849 0.265549 0.527853 0.864247 0.146773 0.505229 0.925912 0.173934 
0.534548 1.00555 0.0510134 0.522331 0.91884 0.107792 0.473537 1.06076 0.188718 
0.46757 0.996983 0.154633 0.536731 0.990191 0.139034 0.517993 1.04833 0.269179 
0.571435 0.946537 0.192878 0.436127 1.06791 0.0347805 0.540403 1.12698 0.0335714 
0.57304 1.0665 0.0351732 0.50375 1.06748 0.0328708 0.552059 1.10871 0.0954569 
0.522569 1.05137 0.10506 0.543664 1.0104 0.209688 0.502684 1.12693 0.205421 
0.537791 1.23504 0.0889336 0.573787 1.21251 0.032287 0.56262 1.17828 0.12393 
0.523308 1.09315 0.152541 0.604272 1.08863 0.268672 0.539458 1.23953 0.158958 
0.534264 1.21421 0.238459 0.565722 1.13273 0.180761 0.558676 1.07484 0.214269 
0.554101 1.13916 0.258958 0.639302 1.20864 0.0436536 0.623487 1.21129 0.111528 
0.463879 1.21655 0.100587 0.656734 1.24261 0.22106 0.595239 1.20107 0.18639 
0.758187 1.1883 0.206882 0.679059 0.130692 0.0408195 0.693472 0.119127 0.112521 
0.721561 0.0321989 0.193052 0.681913 0.134494 0.265517 0.698187 0.0936703 0.181111 
0.636679 0.262744 0.0387351 0.694493 0.315771 0.0396725 0.702703 0.225345 0.149118 
0.704069 0.267191 0.267353 0.640379 0.406941 0.174898 0.694731 0.200272 0.267451 
0.678164 0.327853 0.266706 0.662252 0.337092 0.13794 0.680674 0.459619 0.0425914 
0.659116 0.495741 0.0972945 0.652411 0.358419 0.0778912 0.685793 0.467617 0.158508 
0.648604 0.462878 0.216745 0.680659 0.279118 0.104688 0.730791 0.433617 0.199549 
0.690704 0.353998 0.201224 0.611055 0.646302 0.0351639 0.6624 0.526444 0.0349395 
0.634998 0.558612 0.0889556 0.595173 0.600359 0.12015 0.647777 0.609013 0.156558 
0.66367 0.684751 0.262137 0.637708 0.547561 0.269081 0.68668 0.583339 0.207109 
0.616604 0.579411 0.208102 0.671976 0.548415 0.149829 0.677002 0.517206 0.206252 
0.628163 0.716637 0.1226 0.657911 0.656694 0.0910126 0.696797 0.573429 0.0970845 
0.708143 0.628827 0.137978 0.717107 0.648131 0.207033 0.660663 0.824369 0.268702 
0.66468 0.673167 0.159221 0.623819 0.803617 0.116749 0.646941 0.87823 0.039099 
0.690244 0.763283 0.0798132 0.707869 0.704342 0.0843244 0.679957 0.764103 0.149215 
0.636581 0.777061 0.203001 0.696542 0.716532 0.204694 0.613644 0.870049 0.265678 
0.58254 0.873666 0.181887 0.614659 0.971149 0.0372502 0.668631 0.986075 0.0762767 
0.628676 0.869804 0.105934 0.643035 0.928185 0.0891517 0.586893 0.910212 0.126408 
0.609899 0.968821 0.13894 0.633847 0.985801 0.209431 0.675607 0.850952 0.148027 
0.636041 0.923946 0.233823 0.643763 0.867517 0.206381 0.633474 0.918356 0.16914 
0.630576 1.10852 0.0300652 0.642039 1.04157 0.0404286 0.6946 1.09383 0.035878 
0.573806 0.958406 0.0913473 0.593671 1.02267 0.095478 0.667288 1.04352 0.11585 
0.57792 1.03164 0.260357 0.613283 1.02686 0.161695 0.671337 1.03267 0.184333 
0.616581 1.09115 0.0912234 0.621413 1.14454 0.139069 0.696749 1.16675 0.0370855 
0.596083 1.15608 0.0665555 0.583002 1.08036 0.147343 0.623664 1.05705 0.217169 
0.7413 1.1333 0.0833103 0.636492 1.13378 0.223963 0.660978 1.09376 0.167452 
0.604077 1.19745 0.263609 0.749039 1.21412 0.033559 0.79217 1.18486 0.1011 
0.689395 1.17044 0.106153 0.672827 1.1996 0.168407 0.677676 1.18902 0.259883 
0.722315 0.0832316 0.0341633 0.754297 0.122061 0.0763719 0.718323 0.0486975 0.116957 
0.784043 0.058551 0.124946 0.723049 0.0424571 0.26252 0.73474 0.105773 0.241748 
0.707761 0.242375 0.035057 0.7509 0.182082 0.0391984 0.768644 0.266066 0.0304486 
0.737387 0.177399 0.110607 0.728192 0.156881 0.173065 0.755481 0.167468 0.2634 
0.774194 0.230546 0.156323 0.76967 0.244433 0.26227 0.730569 0.210531 0.212472 
0.703018 0.391295 0.0363958 0.764159 0.327741 0.0321218 0.720467 0.333266 0.103031 
0.746496 0.252908 0.0931705 0.732235 0.419253 0.0925054 0.76449 0.374344 0.126285 
0.703636 0.387177 0.140756 0.7476 0.32082 0.263464 0.73467 0.282664 0.198694 
0.697063 0.419759 0.260499 0.726494 0.514371 0.0855773 0.752975 0.463756 0.0378088 
0.79742 0.486129 0.0860633 0.75424 0.469586 0.133598 0.789369 0.420273 0.169388 
0.6741 0.494624 0.266635 0.803815 0.511421 0.264175 0.774076 0.40248 0.260578 
0.740083 0.481217 0.247455 0.717847 0.548826 0.263651 0.669077 0.600089 0.0391248 
0.694903 0.66542 0.0315342 0.736441 0.534474 0.174792 0.760935 0.582546 0.121037 
0.678537 0.614335 0.2674 0.752308 0.585478 0.21736 0.74307 0.622982 0.267491 
0.673528 0.724569 0.033073 0.747574 0.749967 0.111227 0.758702 0.693358 0.0384566 
0.727941 0.755457 0.0312076 0.749052 0.657304 0.0969796 0.739801 0.69453 0.261127 
0.687331 0.818304 0.208619 0.72616 0.693728 0.145844 0.750943 0.745797 0.178011 
0.693723 0.745673 0.269539 0.701998 0.934994 0.0399823 0.716732 0.854725 0.0346141 
0.681145 0.826488 0.0847027 0.693867 0.889671 0.0958323 0.739261 0.810954 0.159812 
0.739193 0.840283 0.260085 0.734387 0.778128 0.228103 0.681327 0.886724 0.265523 
0.713375 0.878539 0.206313 0.687637 0.951901 0.26891 0.717706 1.02185 0.0398211 
0.725126 1.07025 0.0897291 0.727092 0.956834 0.106685 0.689538 0.94957 0.205707 
0.672038 0.976597 0.138609 0.693981 0.919482 0.15106 0.729636 1.0113 0.15592 
[...]
POINT_DATA 1274
FIELD FieldData 10
VELOCITY 3 1274 double
0.00026419829503 -0.00054163169328 -0.00025214646948 -7.5442680193e-05 -0.00070944009891 0.00015164668544 0.00027284733298 -0.00064060780719 1.9036453766e-05 
0.00030635966263 -0.0010094932407 0.0015744523357 0.00040544587373 -0.00096311564927 -0.0002577339734 0.00041221531571 -0.00044747810519 0.00036208709979 
0.00014785472911 -0.0003357705601 0.00069975571261 -0.00035603277823 -0.00050558994239 8.9702031876e-06 0.00044262679683 -0.0010569752302 -0.00015092812755 
-6.592158528e-05 -0.00034841269868 0.00049521427535 0.00025897306903 -0.00090027921855 -0.00038615628161 0.00019319284612 -0.00069327439517 -0.00016520903932 
0.00037030960966 -0.00089811039208 6.9525311803e-05 0.00068980359832 -0.0015665197414 0.00099572074752 0.00013873995575 -0.00043746744517 -0.00034140119569 
0.000241529029 -0.00052828161047 -0.00031958767343 0.00021225619329 -0.000548057363 9.3668524256e-05 0.00058608226508 -0.0015377071718 4.0263368365e-05 
0.00098044338042 -0.00042907053636 -0.00022251310772 0.00017038503003 -0.00054831519091 6.237373964e-05 0.00034159745073 -0.0010338276829 0.0002046795794 
4.9829911271e-05 -0.00043788758489 -0.00014963684205 2.0550056204e-05 -0.0001234643434 0.00013879541108 0.00010362954646 -0.00033905471523 -0.00029405553931 
0.00059541332054 -0.0015210409083 0.00043734851386 0.00017218519202 -0.00034116590697 0.00016702794057 0.00026738935435 -0.00023164284082 9.5748429649e-06 
0.00056015454355 -0.0014403912471 0.00010493616325 0.0017957100395 -0.0032863171504 -0.0053821307463 8.8686019947e-05 -0.00073821199578 -0.00051219896536 
6.4691803638e-05 -0.0049040775357 -3.0230615923e-05 0.00016519117887 -0.00022898658356 8.0659681373e-06 0.00019262132394 -0.00043290272588 -0.00046527527204 
-0.0066765797086 -0.012815764226 0.0057186478627 0.0038572728194 -0.0024210008644 0.0009224760815 0.00034216224328 -0.00056710437799 -0.00016408530989 
0.0018012945477 -0.0035540587028 -0.00088901160984 0.00014848376488 -0.00049114569388 -0.00016479350558 0.00037818154142 -0.00089381633505 -4.1447200929e-05 
0.00018250998129 -0.00063092777111 4.2994062748e-06 0.0022021955058 -0.0043571733745 -0.0015068475173 0.00026721377737 -0.00085153609613 -3.4602401413e-05 
0.00028424553513 -0.00052401407893 -0.00029304897813 -0.003309868232 -0.00014571742217 1.5756070029e-06 0.00026502269501 -0.00046838219828 0.00015909575254 
0.0032405043553 -0.0039552119079 0.0021742094994 -0.0020443018504 0.0048598246483 -0.0099414521082 0.00014704424964 -0.0004552409942 6.6522303409e-05 
-0.006421704862 0.0042099112011 -2.6207840146e-05 3.62411505e-05 -0.0015076993516 0.00065174668258 0.00071068093404 -0.00077331963008 0.00044318874928 
-3.7323960398e-05 -0.00017755020774 0.00055210162588 0.00022657197231 0.00067708565241 0.0007553570028 0.00042515686325 -0.001151193246 0.00010108753515 
0.00033755067847 -0.00078400808738 0.00030878505126 0.00033295624407 -0.00049962480157 -0.00019998816994 0.00016620769974 -0.00039603986513 1.0912972343e-05 
0.00026946194488 -0.00077566642615 0.00057728904826 0.00026501211556 -0.00065923503666 5.9323203822e-05 9.9966952207e-05 -0.00066874757796 -0.00019496197387 
0.00026861484611 -0.00051128205068 0.00021749372972 0.00060440690955 -0.00037044847533 -0.00033183933865 0.00020945592337 -0.001392036861 1.4054449769e-05 
0.00035477581305 -0.00055853337406 -1.9553707498e-06 0.00077319175636 -0.00014090052976 -0.00011291131601 0.00018073098444 -0.0004726279843 0.00035944048087 
-0.00014407942784 -0.00018320654483 0.00033071205633 0.00079845472356 -0.00047780812463 0.00056657872644 0.00085509524211 -0.00054070457248 -0.0011094925394 
-0.00044949032391 -0.0010179133917 -6.6089889114e-05 0.00027556040867 -0.00020896908089 -0.00047378660713 0.00023739232518 -0.00072942328753 0.00012477565064 
0.00047899884198 -0.001388639037 -0.00040728788906 -0.00052631358244 -0.00039686290132 -0.00086633876619 -6.7905650138e-05 -0.00089066465212 0.00010613716658 
-0.00035575148441 -0.00066715756253 -0.00086522750022 0.00068080439248 -0.00086360265583 -5.688355766e-05 0.00025736296025 -0.0010326772911 2.8094207542e-05 
0.00060750921257 -0.00090887397355 6.1438738807e-05 -6.4578605776e-05 -0.00042860953591 9.4533285735e-05 0.00021337949828 -0.0006243683258 -3.017780904e-05 
7.132017295e-05 -0.00053920933777 0.00025863514822 0.00018936066652 -0.0010815909923 0.00019404689762 4.6983351442e-05 -0.0011244777234 -0.00010764936964 
-0.0011251749686 -0.00013057599381 -0.000172524205 0.00015035305067 -0.0013693597353 0.00018613391472 2.0537389049e-05 -0.00063402681194 0.0002752271135 
-0.00021942698717 -0.00089426295371 -0.00089404881777 0.00029722670239 -0.00095355670563 -9.7597429199e-06 0.00040494237636 -0.00034103780384 -7.0741375024e-05 
0.00015804928653 -0.0010942418881 0.00024831257 -0.0012885713338 -0.00056693120809 -0.00011513980206 -5.6199853592e-06 -0.0011110796309 0.00020716880844 
0.00082265907768 0.00022507210257 -8.2455451868e-05 0.00086002322355 -0.0020076232672 -9.2425674236e-05 0.0036660356699 -0.00095046724324 -9.4406877901e-05 
0.00075568861966 -0.00076449470256 0.00096967387951 0.0010067079648 -0.00097853879519 0.00062258835189 0.00091808293702 -0.00035623313345 0.00046246963815 
-0.00029642732979 -0.0010553445659 0.00092642403833 -0.00024458123097 -0.00066216111712 4.3193509289e-05 9.3780372976e-06 -0.00099004735094 2.3416012722e-05 
0.0016527561524 -0.0024015811211 9.5913262519e-05 0.00027175148711 -0.0016592546937 3.3804947153e-05 -4.604000409e-05 -0.0014961511116 -6.070233198e-05 
-0.00042386165608 -0.0008230450653 -0.00014468408037 0.00013685583147 -0.0005802684265 -0.00051709566627 0.00027507416198 -0.00045418695645 -0.00026852357327 
-0.0001032865009 -0.00028945447391 0.00011520030902 4.130902452e-06 -0.00033616684706 0.00046091500426 -0.00086614506524 -0.0014211136642 0.00082520387404 
0.0029570522732 -0.0027382902527 -0.0001301134214 0.00054658800257 -0.0017351695828 0.00098986502633 0.00061474881883 -0.00031223135942 0.00053277569933 
-0.00083491247679 -0.00034853949549 -2.469571328e-06 -0.0011002645633 -0.0026778228823 -0.00078582983897 -0.0043641631706 -0.0025779619665 -0.00022659360773 
0.0023838537234 -0.00096077783863 -0.0020597665901 -0.0030648554883 8.197098305e-05 -0.00017478402152 -0.00032282159718 -0.0010378570731 0.00084837804048 
-0.0032774441852 -0.0003252112498 0.00017245119006 0.00053018620561 -0.00024954058733 0.0018343057505 0.0022265597129 -0.0024428723569 -0.0024011676858 
0.0038395605077 -0.0022781889633 -0.00014838204847 -0.017464972092 -0.018002582794 0.026659846572 -0.00019354639703 -0.00078683577996 0.00010560376171 
0.0063638617145 0.0023111709237 -1.536357385e-06 -0.00034456118651 -0.0012188280856 0.00057077965428 0.010814380421 0.006997441157 0.022934734879 
-0.00099276346086 -0.00094188629736 0.00020111495721 0.0021453214958 7.7201453767e-05 -0.0048534550661 -0.02717103942 0.0085656827292 0.018727138059 
-0.064619213336 -0.011633112002 -0.0035834857709 0.0030987149258 -0.0019509746503 0.0040090800289 -0.00021065257693 -0.00079983417648 0.0013763669479 
-0.02173692916 -0.019171158795 0.027217449522 0.00016410112447 -8.5643337001e-05 0.00042267726197 -0.00043214560257 0.0010773784529 -0.00028306661081 
-5.3136441238e-05 -0.00014930617872 0.0006164983003 0.00041472061594 -0.00043595203682 0.00021172942186 -2.3715323143e-05 0.0002162928414 0.00081650488696 
0.0002387319636 -3.9730279281e-05 0.00019231630095 -2.3600953188e-05 -0.00015402376103 0.00066179933166 -0.00027560092039 -0.00084898599717 -1.1197161581e-05 
-0.0015485366014 -0.0014725457122 -0.00059915384187 6.6698172196e-05 -0.00032503647394 0.00010368657894 0.00075508982967 -0.0012398555652 -0.00021617310383 
3.4195573129e-06 1.9936365298e-05 0.00034692464817 -0.00016088752336 -0.0005621429977 0.0006344691015 -0.00010798642615 -0.00019464057519 -0.0012898058113 
0.00029750661405 -0.00063005838793 -2.6266330304e-06 -0.00093943947505 -0.00093757053807 0.00013918539563 0.00061927685533 -0.00034989098231 -0.00045773071799 
0.00035375934669 -0.00046983999771 0.00078420565889 0.00038613528233 -0.00094791743516 -0.00045842041919 0.00072358039003 -0.00040161362807 -0.00012688527052 
0.00042813540567 -0.0014774693752 -7.4056545278e-05 -0.00010730360729 -0.0011073320774 -4.648198278e-05 -0.00043956286299 -2.2674216469e-05 0.00028504409337 
0.00030688412417 -0.0015522525088 0.00037106570242 0.00086590158176 -0.0010531756652 0.00083869585623 -2.4784669269e-05 -0.00084932503195 3.5014410645e-06 
0.00080959237958 -0.00088066132637 8.2567212406e-05 0.00078607703426 -0.0012698452804 -7.0734681426e-05 -0.00016813160509 -0.0014265847524 0.00038153809144 
-0.0013470803419 0.0006502961184 0.00028288010399 0.000344632781 -0.00056268810756 -0.00019501145279 -0.00080696001153 -0.0008467728468 -1.0825304752e-05 
3.1367601936e-05 -0.0008312461546 0.00023590140641 0.00033677594791 -0.00070784739762 8.9201331514e-05 0.00049915072453 -0.0007677628495 -2.1956177573e-05 
-0.00044958244299 -0.00060500595502 -1.0382197561e-05 8.401726331e-05 -0.0011272354591 0.00037558996322 -0.0004215139532 -0.0012183021394 -0.00020790654509 
0.00041589188667 -0.0010823151476 0.00010082753824 -0.00019876564918 -0.00010488235074 -0.0015192834866 0.00040697153956 -0.001658837915 -0.00045500364309 
0.00040110034622 -0.00173580283 1.0560104256e-05 0.00053820914143 -0.00082694951895 4.9303655402e-05 -6.3293237877e-05 -0.00069991732849 -2.2110938679e-05 
3.9559755942e-06 -0.00097934224148 -5.6065122711e-06 0.00033305876076 -0.00093041969015 -0.00030921628106 0.0015550957392 -0.0016744696708 -0.00079922230335 
0.00016502995488 -0.00046236036561 0.00012751606837 0.00035977645102 -0.0015221187505 -0.0011350154127 -0.00092652849521 -0.00064201828057 0.0019638597907 
0.00055195463141 -0.00020277731494 0.0004079148563 0.00033550115794 -0.00029524396744 -0.00049782222119 -0.00073345749617 -0.0007777016366 9.8071106531e-05 
-0.00064363495734 -0.0013299682298 -0.00065100332598 0.00070412270754 -0.0021015024048 -0.0018496827045 -0.012355641078 -0.006429277339 -5.1017065542e-05 
-9.7419429437e-05 0.00012349664182 2.5010639982e-05 0.00078187399575 -0.00022225548151 -3.9121417116e-05 -7.6884796457e-05 -0.00030962106214 0.00065356449231 
-0.00052411918647 -0.0002762884499 -0.00026881473251 -0.0011365060885 -0.0015244920002 -0.00027685645265 -0.0001979698777 -0.0011656215039 0.0027960647256 
-0.0013067320797 0.0019070136835 0.0012203518229 -0.0064370228629 -0.0023045119505 -0.00020353676996 0.001280045266 -0.00016126326615 -0.0035618023438 
-0.0020448703545 -0.00099647010865 0.00026131689333 0.0016832232615 -0.0020661556373 0.00019458013067 -0.0032907392251 -0.0014755654832 0.0014116797435 
-0.00090894393248 -0.0024758705732 -0.00093253587087 -0.0019087791174 -0.0034772844626 -0.0025005729529 -0.0025174608755 -0.0013458398134 0.00087093096548 
-0.0022775645372 -0.0051261687849 0.0057022851159 -0.0065634568851 -0.011320340277 -0.0025487351984 -0.026880548982 -0.0029378516392 -0.0075409880802 
-0.00028648552403 -0.0019904252183 0.0013529972576 -0.042422866703 -0.018520222294 0.0019971135377 -0.0037028443533 -0.0028833779761 0.00025456005904 
-0.010733081237 -0.010899824969 0.068361329898 -5.0109429642e-05 0.00016611801274 -0.0006020814179 -0.00037723971657 0.00086999986039 0.00031966340209 
-2.3734937132e-05 -5.2088460966e-05 -4.4935050084e-06 -0.00018062048146 -0.0010382662526 -7.0861137451e-05 -0.00032156546671 0.00086406303621 0.00039182516611 
0.00079317054828 7.608794052e-05 -0.0001026854728 0.00076514893192 -0.00023647225545 -3.8562212602e-05 -6.2672463968e-05 -0.00097099363855 0.0006392059026 
0.00012620217355 -0.00060587635113 -0.00091410910605 -0.00040743339757 -0.000547933151 -0.00023755559623 0.00071048413559 0.00035722866041 3.9926674734e-05 
0.0022770029159 0.00099985983221 0.00054470084092 -0.00049175580927 -0.0004213918839 -5.8519283872e-05 -0.00055834614444 -0.00090171669046 -0.00036181198105 
-8.299955591e-05 -0.00056785102655 -0.00030380349019 -0.00027074700947 -0.0011186794228 -0.00028767292308 0.00047741921332 -0.0006393886274 -0.00036406878678 
0.00089379139425 -0.00094283031113 -6.260736847e-05 0.0011195805669 -0.00065540938308 -0.00015635009773 5.3850893892e-05 -0.00078742890648 -0.00012431077253 
-6.3602083531e-05 -0.0002903506076 -0.00021249700993 0.00054313262752 -0.00089764147976 9.5083825231e-05 -0.0012972479156 -0.0010525569204 -8.7899559258e-05 
-0.00012262251907 -0.00067764985066 0.00091943494963 0.0005034584533 -0.00024088043491 -0.00062777629118 0.00028491418726 -0.0017883129608 0.00023029654058 
-0.00047689079938 -0.00089925323348 -3.5512136156e-05 0.00036384173311 -0.00097087324152 1.212636504e-05 0.00013915986798 -0.0007682035467 0.0001378813972 
0.00024617411204 -0.00088960278095 0.00021592453904 0.00075183761562 -0.0008593767307 6.8576587211e-05 0.00029162181174 -0.0008577216647 -0.00011331167666 
-0.00032905262266 -0.0013311078757 7.3126132943e-05 0.00021645745143 -0.0012521689729 0.00014469319679 0.00035921121162 -0.0011825663488 -0.00015763298209 
0.00015727039634 -0.00096059256831 0.00067627661259 -0.00012488986489 -0.0007412159141 8.2691370657e-05 7.8587535467e-05 -0.0010597448572 0.00015570877968 
0.00027693214812 -0.0010738727848 0.00041811598489 0.00043448660753 -0.0011404367566 -0.00019132609922 0.0004529734787 -0.0012830280847 -8.8526882738e-05 
-0.00045247667255 -0.00064205524783 -0.00032805167935 0.00017647150695 -0.0012647220652 0.00054254147825 -2.7959270569e-05 -0.0014349424518 -0.00029388593896 
-0.00010762651263 -0.0017433427572 -0.00037611413224 -0.00024681514072 -0.00086815644029 0.00016284325384 -0.00015806950839 -0.0011328830241 -0.00013405833585 
0.00049058502924 -0.0011026785192 0.00021797827673 -0.00033362353003 -0.001114742934 0.00014771087791 -0.00023842965709 -0.0007029516689 6.5295405885e-06 
0.0010322471873 -0.00071005397007 -8.6531312164e-05 0.0006395748684 -0.00083429611581 -0.00035865621173 0.0001548592816 -0.0018960369682 -0.00049588685209 
-5.3260884155e-05 -0.00096233753618 -0.00035391377216 0.0007746494699 -0.00077613463099 0.00039154921817 0.001387966442 -0.0014723555547 -0.00022859234495 
-0.00019483873607 -0.00092184682292 0.00027501207072 0.00035276062833 -0.0010834568992 0.00053063418529 -0.00042837984054 -0.0011029267003 -0.00015226776554 
-0.00052066422456 -0.00106250367 1.0636388456e-06 -0.00038258730932 -0.0011139464461 -0.00055846880315 -0.00068047381168 -0.00089868483285 -2.3243022124e-05 
-0.00044093677522 -0.0015345451702 -2.4647008666e-05 0.00050816410045 -0.0012711884678 -0.00010803847773 2.60943434e-05 -0.00073650738845 -5.901401249e-05 
-0.0006491178823 -0.00093567680368 0.00050378295088 0.0002978422225 -0.0016961064632 0.00014335720202 0.00079717213848 -0.0012149435871 -0.00020040461535 
-0.00043507478276 -0.001048673396 0.00011333184926 0.00018281734407 -0.00070476778749 -9.9367386224e-05 0.0014377918873 -0.00073290743275 -5.2734031618e-05 
-0.0086433406267 -0.0064615565295 -0.0065646081456 -0.0031618670709 -0.0043005207927 -0.0023442840576 0.00088521329108 -0.00068855130208 -0.000593661206 
1.648379417e-05 -0.0017404055643 0.00021962180631 -0.0014067753419 -0.00094833833127 -0.00058768043628 -0.0010124954098 -0.0013806334003 -1.5784639249e-05 
-0.0018153742593 -0.0050855349902 -3.0754166386e-05 0.0013812414523 -0.00063180268451 1.3959957781e-05 0.015041464417 -0.032554423829 -0.0011725966663 
0.00059821920564 -4.5879412212e-05 -0.00014543544585 -0.003938908401 -0.0003676735798 -0.0010871316611 -0.0012865301425 -0.0026604114344 0.0016419593395 
0.00040161966306 0.00017977629946 0.00018480983525 -0.00059408635625 -0.00019067554893 -0.00012360864617 -0.00027134854353 0.00076037335491 0.0011111259625 
-0.00012557978902 -0.00073909835625 0.0010230614808 0.00016892840808 -0.00051839404133 6.2664106189e-07 0.00092228162583 0.00057087696694 0.00067526650312 
-2.2086215186e-05 -0.00024699720988 0.0013991261212 0.00038022851769 -0.00022375700771 -0.00035086315995 0.001213073688 0.001012951766 -0.0016874876716 
-0.00093256039592 -0.0013375970464 -0.00030812046423 -0.00066950589139 -0.001100419319 -0.00021821735397 0.00067733696313 6.2434117921e-05 2.5656858871e-05 
0.00022145926442 -0.0007741980148 -0.0014210207028 -0.00014916847086 -0.0010994168782 -0.00066724783137 0.00092760318972 -0.00086795475081 0.0001309568504 
-0.0003704277285 5.4603234544e-05 -1.5249957877e-05 0.00064136661135 -0.00044270654281 -0.00041474403793 -0.00039404693149 0.0004486938584 0.00039873937484 
0.00069504340793 -0.0013007134241 -0.00061123796419 0.00043154233965 -0.00069247356836 -3.5564237488e-05 9.4362727417e-06 -0.00026211288632 0.00079023541189 
-0.00032857167548 0.00039800270364 0.0002414349369 0.00027541148533 -0.00049614548022 5.0258138989e-05 0.00026353393261 -0.0011636329128 -0.00031279707899 
-0.00011840718042 0.00028807781163 -1.6390777133e-05 6.8268854371e-05 -0.00053391603469 0.00096744420658 -0.00085966148677 -0.00022050283539 0.00027585538149 
-0.00029996239464 -0.0015115036771 0.00040751869243 0.00061956212732 -0.00051940307676 0.00063806439552 0.0015734102138 -0.00070521442786 0.0010899894353 
0.00078944749974 -0.00054263968393 7.5853217615e-06 0.00055303921025 -0.00015482147253 4.1917951817e-05 -0.00039262087297 -0.0013519435469 -0.00020270143597 
0.00062547742531 -0.0003877829514 -0.00061786553615 0.00052326194945 -0.00058315250109 3.6546434663e-06 -4.4429893614e-05 -0.001292694484 0.00014589008034 
-4.4943434466e-05 -0.0011160338441 -4.9057199239e-05 0.00076857130935 -0.0011145307131 0.00053259437802 0.0002508046274 -0.0001835266929 0.00072150849382 
0.00036232873613 -0.0004696187571 3.9391164406e-06 0.00015500345822 8.9996381864e-05 -0.00059340675322 0.00040750654058 -0.00082366573671 4.7229694561e-05 
-0.0002410582799 -0.00097836328713 -0.00037779514114 7.2713133072e-05 -0.0015169557227 0.00073227064822 -0.00027992727554 -0.001055741571 8.7029303644e-05 
1.0346097783e-05 -0.002150026148 0.00024409395064 -7.9404336819e-06 -0.00084295409538 0.00016782140412 3.7300433909e-08 -0.0009763551548 -6.562434145e-05 
-2.8024390442e-05 -0.0014654078512 8.2598280042e-06 0.00015494459988 -0.0015863219664 0.00049897525477 0.00072591608269 -0.00074626174381 0.0010655555625 
-0.00027408799289 -0.00096048159942 3.5353565798e-05 -0.00040642654783 -0.00045741401956 0.00018446108417 0.00080360769017 -0.0016274358997 -3.6342292056e-05 
3.9728532142e-05 -0.00098735653716 -0.00045051439527 0.00037991297131 -0.0015657688826 -0.00027757675975 -0.00053205433823 -0.0012125826948 -0.00024460580213 
-0.00088439961508 -0.0015209073834 -5.9138264986e-05 -0.0010724877789 -0.0021355514872 0.0011222376755 -0.00014033937582 -0.0010161419723 -0.00041062913508 
-0.0010798692264 -0.00073810323706 0.0006823396058 0.00017269928082 -0.00091888532811 -5.0930337436e-06 -0.0002929669562 -0.00078099840666 -2.6778659135e-05 
0.00088580151914 -0.0017464438335 0.00063996637445 -0.0010576408771 -0.010973600578 0.0037063814648 -7.2962690393e-06 -0.0018929548044 -1.0161807628e-07 
-4.9547178646e-05 -0.0010474051307 -0.0010444188685 -0.00030139096764 -0.00070044964678 -0.000392721578 0.0012037286821 -0.0028779527117 -0.00081123556934 
-0.00052350299779 -0.00067330272529 -6.5144545522e-05 1.4264884089e-05 -0.0015211611861 0.00020632382775 -0.00088806876334 -0.0042738306032 0.0013254307451 
-0.00057226017535 -0.00094489197217 0.0013071541386 0.00071924267578 -0.0017579861342 -0.00012704667255 -0.0078949699748 -0.0021622505863 0.0047711751179 
-0.00025272316373 -0.0017631072201 0.00036479162178 0.0059101699466 -0.0012237961309 0.0017688368892 -0.00086413713453 -0.0014172568949 0.00013828583424 
0.00030516829 -0.0021326404673 -2.1622028458e-05 0.00052342651775 -0.0012982457982 -3.5499436695e-05 -0.013965755795 0.0025142594771 0.043296433743 
-0.00011029589391 -0.0016432446829 0.00055916173555 0.00054243662652 -0.0011360957467 1.1625016114e-05 -0.0019390105753 -0.004082763255 1.0336404759e-05 