# vtk DataFile Version 4.1
vtk output
ASCII
DATASET UNSTRUCTURED_GRID
POINTS 1274 float
0.512045 0.556132 0.0379512 0.468993 0.652469 0.105446 0.48722 0.599594 0.268458 
0.494235 0.588801 0.0994635 0.423042 0.75748 0.0323136 0.423987 0.769588 0.119082 
0.47513 0.63848 0.213099 0.459831 0.671745 0.268647 0.392998 0.847366 0.0594737 
0.397896 0.81399 0.164066 0.445148 0.701191 0.215288 0.431938 0.740932 0.265757 
0.362048 0.904708 0.03197 0.342826 0.970456 0.0514051 0.380723 0.879876 0.146334 
0.394103 0.846105 0.231949 0.344587 0.959396 0.260016 0.313071 1.04138 0.0387193 
0.38907 0.915985 0.0868897 0.446678 0.900309 0.110213 0.331461 0.998076 0.129699 
0.408643 0.916749 0.21837 0.30988 1.03903 0.265122 0.351504 0.930715 0.187958 
0.280628 1.10423 0.0482512 0.327493 0.988985 0.200354 0.286065 1.10954 0.260298 
0.256929 1.16444 0.0336643 0.356038 1.11781 0.105371 0.301269 1.0704 0.109694 
0.289494 1.2543 0.038219 0.302343 1.04665 0.200316 0.282973 1.10193 0.172715 
0.332326 1.25758 0.0930704 0.383549 1.15991 0.0370037 0.274994 1.14982 0.110616 
0.420582 1.15188 0.106653 0.260111 1.15195 0.208843 0.339789 1.10857 0.211524 
0.218291 1.2571 0.0332144 0.318913 1.18821 0.0547341 0.319226 1.1583 0.173844 
0.24415 1.20047 0.164846 0.287587 1.18425 0.26484 0.238495 1.22353 0.0940089 
0.37077 1.23382 0.0356631 0.236182 1.23112 0.236732 0.215125 1.25811 0.149936 
0.540392 0.471597 0.03021 0.611376 0.296035 0.0941085 0.595163 0.359648 0.120527 
0.596701 0.348126 0.196667 0.575829 0.38953 0.266498 0.609654 0.315448 0.26134 
0.54029 0.470999 0.209978 0.508233 0.559015 0.219371 0.603238 0.329277 0.0358989 
0.566442 0.418085 0.159128 0.483109 0.626221 0.0391312 0.610183 0.477307 0.0480268 
0.545637 0.475815 0.0985253 0.54927 0.448864 0.268473 0.564812 0.573445 0.262776 
0.527057 0.513325 0.159505 0.549836 0.670023 0.0308572 0.444935 0.712577 0.0781181 
0.517298 0.698873 0.105686 0.470744 0.755078 0.178174 0.550455 0.549004 0.100674 
0.523429 0.660223 0.266703 0.445871 0.698096 0.146572 0.414164 0.779486 0.214281 
0.500718 0.682561 0.170741 0.553704 0.578454 0.168502 0.493586 0.782357 0.0917304 
0.534597 0.762479 0.146122 0.457581 0.816702 0.0363742 0.50816 0.726311 0.0397532 
0.483887 0.819484 0.150704 0.435903 0.837044 0.113426 0.363781 0.896032 0.269731 
0.498747 0.771044 0.260787 0.538497 0.619234 0.219077 0.562791 0.749269 0.220357 
0.467383 0.81729 0.213566 0.505982 0.707906 0.227215 0.459783 0.891363 0.040236 
0.520488 0.856032 0.0357632 0.5349 0.793177 0.0326224 0.454241 0.877641 0.177823 
0.49416 0.85207 0.0957346 0.465722 0.871798 0.260664 0.43817 0.805789 0.269011 
0.416136 0.953255 0.0373629 0.373264 1.09146 0.0325888 0.465246 1.00623 0.0331284 
0.39969 0.998847 0.094484 0.414481 0.949912 0.150192 0.467125 0.9656 0.091127 
0.485475 0.94288 0.261203 0.419555 0.974152 0.26148 0.534797 0.985447 0.2689 
0.458799 0.954925 0.20287 0.383108 1.02655 0.0323972 0.365188 1.05716 0.085307 
0.463283 1.03358 0.0904127 0.362329 1.06459 0.158567 0.394972 1.00613 0.196921 
0.441296 1.05231 0.264238 0.376681 1.03047 0.267406 0.483423 1.0056 0.235687 
0.455645 1.1382 0.0385398 0.470154 1.08465 0.123105 0.426805 1.04364 0.138798 
0.361215 1.09189 0.269156 0.524605 1.18109 0.176494 0.490271 1.10457 0.267885 
0.407962 1.08968 0.213084 0.429626 1.13488 0.26422 0.445161 1.12228 0.166666 
0.359106 1.162 0.260112 0.510014 1.18876 0.0381217 0.497544 1.14868 0.12079 
0.435662 1.208 0.0341935 0.368891 1.20376 0.101403 0.380849 1.13488 0.166277 
0.338983 1.23833 0.260952 0.452787 1.16949 0.207636 0.401881 1.20837 0.220819 
0.469383 1.19205 0.266121 0.486486 1.25676 0.0362705 0.311966 1.214 0.137415 
0.459703 1.2507 0.226672 0.300116 1.21448 0.20414 0.472898 1.21453 0.169841 
0.372256 1.23159 0.163586 0.639636 0.2314 0.178692 0.564429 0.412058 0.0315354 
0.659969 0.193101 0.0555601 0.661359 0.287478 0.212677 0.639886 0.241792 0.26351 
0.668949 0.174437 0.206867 0.642882 0.223089 0.11489 0.632022 0.407659 0.0363399 
0.592613 0.42436 0.0894548 0.526731 0.510505 0.265844 0.604507 0.488654 0.26278 
0.617381 0.291098 0.158848 0.638786 0.377817 0.245452 0.613713 0.460962 0.137098 
0.587069 0.547955 0.0375177 0.660443 0.424423 0.101986 0.533595 0.637447 0.132219 
0.603746 0.529414 0.14651 0.57472 0.526033 0.211543 0.591987 0.434205 0.220449 
0.613249 0.625155 0.266298 0.603479 0.719753 0.0390315 0.55514 0.611412 0.0649009 
0.568738 0.735813 0.0983794 0.565936 0.699498 0.157237 0.599704 0.71133 0.268228 
0.590426 0.635668 0.174125 0.642905 0.642556 0.210796 0.572118 0.673267 0.224335 
0.59632 0.760269 0.15993 0.586554 0.667302 0.0961683 0.639575 0.788978 0.0390289 
0.561249 0.798241 0.0908039 0.541938 0.815276 0.189843 0.544991 0.833084 0.261831 
0.615775 0.775825 0.265249 0.516314 0.874599 0.210255 0.625018 0.710464 0.200459 
0.600454 0.823335 0.221625 0.584804 0.838328 0.0359633 0.560678 0.862782 0.0932373 
0.565438 0.911684 0.0397006 0.503223 0.945524 0.0315425 0.552015 0.910485 0.260438 
0.597971 0.968277 0.265549 0.528085 0.863902 0.146582 0.505609 0.925358 0.173503 
0.534739 1.00511 0.0510263 0.522367 0.918245 0.107277 0.473527 1.06051 0.188901 
0.467781 0.996768 0.154712 0.536834 0.989885 0.138678 0.517917 1.04805 0.269179 
0.571097 0.945978 0.192597 0.436227 1.0676 0.0347798 0.539796 1.12638 0.0335715 
0.572998 1.0662 0.0351735 0.503848 1.06699 0.0328709 0.552115 1.10855 0.0954252 
0.522676 1.05115 0.104866 0.543388 1.00987 0.209417 0.5026 1.12672 0.205561 
0.537861 1.23509 0.08898 0.573569 1.21222 0.0322877 0.562851 1.17808 0.123447 
0.523101 1.09286 0.152417 0.604364 1.08835 0.268671 0.539202 1.23923 0.159033 
0.533921 1.21371 0.238245 0.565551 1.13207 0.180567 0.558087 1.07436 0.214291 
0.55387 1.13862 0.259315 0.639121 1.20802 0.0433247 0.621201 1.21072 0.110672 
0.464062 1.21618 0.100679 0.643135 1.23829 0.226052 0.594839 1.2005 0.186368 
0.758045 1.18712 0.207997 0.679041 0.130739 0.0406745 0.693396 0.119305 0.112623 
0.721563 0.0322002 0.192949 0.681952 0.1344 0.265516 0.6981 0.0938813 0.181224 
0.636926 0.262729 0.0387345 0.694794 0.31573 0.0396733 0.702641 0.225228 0.14939 
0.704133 0.267035 0.267353 0.640348 0.4068 0.174728 0.694834 0.200167 0.267451 
0.678249 0.327707 0.266702 0.66242 0.336844 0.137863 0.680523 0.459331 0.0424424 
0.659091 0.495597 0.0972774 0.652376 0.358108 0.077824 0.685882 0.467404 0.158413 
0.648884 0.462584 0.216759 0.680963 0.278916 0.1046 0.730795 0.433317 0.199477 
0.690651 0.35391 0.201208 0.611215 0.646059 0.0351646 0.662139 0.526142 0.0349393 
0.635045 0.558508 0.0889936 0.595175 0.600285 0.120099 0.647802 0.608589 0.156554 
0.663678 0.684475 0.262135 0.637809 0.547263 0.269081 0.686759 0.583092 0.207131 
0.616683 0.57918 0.208241 0.672169 0.548051 0.149895 0.677218 0.516939 0.206236 
0.628218 0.716271 0.122573 0.657979 0.656254 0.0911296 0.696855 0.57324 0.097169 
0.708213 0.628494 0.138224 0.717129 0.647912 0.206996 0.6607 0.824117 0.268703 
0.664727 0.672891 0.159307 0.623867 0.803393 0.116792 0.647182 0.877753 0.0390993 
0.689934 0.762756 0.0796648 0.707905 0.703946 0.084496 0.679959 0.763701 0.149117 
0.636725 0.776704 0.203015 0.696592 0.716324 0.204749 0.613642 0.869757 0.265678 
0.582762 0.87314 0.181763 0.614731 0.970727 0.0372508 0.66862 0.985812 0.076332 
0.629111 0.869555 0.106014 0.64323 0.927912 0.0889448 0.586857 0.909639 0.126155 
0.609865 0.968515 0.138982 0.634049 0.985613 0.20958 0.676065 0.850526 0.148001 
0.635944 0.92368 0.2338 0.643746 0.867024 0.206854 0.633203 0.917696 0.169159 
0.630474 1.10825 0.0300645 0.641979 1.04121 0.0403225 0.69449 1.09352 0.0358782 
0.574066 0.957984 0.0911922 0.593815 1.02227 0.0955382 0.667414 1.04329 0.115851 
0.577867 1.03142 0.260396 0.613453 1.02654 0.161743 0.671525 1.0324 0.184324 
0.616586 1.09079 0.0912217 0.621496 1.14425 0.138974 0.696825 1.16644 0.037085 
0.595873 1.15542 0.0659339 0.582701 1.07969 0.147095 0.623843 1.0569 0.217123 
0.741287 1.13303 0.0834288 0.635868 1.13367 0.223618 0.660956 1.09348 0.167493 
0.603687 1.19708 0.263608 0.749136 1.21378 0.033559 0.79137 1.18389 0.100971 
0.689427 1.1703 0.106139 0.672416 1.19938 0.168308 0.677268 1.18838 0.260136 
0.722231 0.0831947 0.034164 0.754178 0.122038 0.0763844 0.718243 0.0488901 0.117291 
0.784021 0.0583783 0.125226 0.723154 0.0422017 0.26252 0.734856 0.105603 0.242017 
0.707745 0.242276 0.0350574 0.750978 0.182059 0.0391986 0.768637 0.265959 0.0304511 
0.737236 0.177571 0.110577 0.72811 0.156735 0.172942 0.755621 0.16743 0.2634 
0.77419 0.230444 0.156032 0.769639 0.244041 0.2621 0.730849 0.210221 0.212549 
0.702958 0.391295 0.0363958 0.764438 0.327664 0.0318667 0.72036 0.333369 0.103157 
0.74675 0.252605 0.0930249 0.732314 0.419096 0.0925101 0.764462 0.374257 0.126484 
0.703585 0.387172 0.140784 0.747683 0.320649 0.263464 0.734692 0.282324 0.198524 
0.697028 0.419866 0.260498 0.726548 0.514139 0.0858761 0.752821 0.463695 0.0378106 
0.797341 0.485649 0.086194 0.75445 0.469394 0.133847 0.789546 0.420042 0.16962 
0.674313 0.494402 0.266635 0.8039 0.511425 0.264172 0.773923 0.402064 0.260577 
0.740264 0.481129 0.247259 0.717973 0.548673 0.263651 0.669164 0.599752 0.0391269 
0.694756 0.665173 0.0315331 0.736608 0.534133 0.17494 0.760992 0.582239 0.121165 
0.678625 0.614136 0.2674 0.752414 0.585454 0.217149 0.743173 0.622674 0.267491 
0.67348 0.724355 0.0330228 0.747641 0.74958 0.111375 0.758596 0.693013 0.0384581 
0.727892 0.755245 0.0312095 0.748885 0.656951 0.0969688 0.739878 0.694241 0.261127 
0.687478 0.817938 0.208681 0.726261 0.693335 0.145996 0.751042 0.745589 0.178167 
0.693784 0.745371 0.269539 0.70198 0.93477 0.0399797 0.716924 0.854292 0.0346141 
0.681193 0.8261 0.0846259 0.693961 0.88928 0.0957078 0.73921 0.810631 0.159658 
0.738859 0.839741 0.260086 0.734101 0.777402 0.228459 0.681256 0.886509 0.265523 
0.713125 0.878349 0.206525 0.687771 0.951667 0.268911 0.717669 1.02156 0.0398206 
0.725294 1.06993 0.0897288 0.726818 0.954191 0.107522 0.689455 0.948962 0.205718 
0.671997 0.976362 0.138621 0.693658 0.919108 0.150925 0.730037 1.01044 0.155713 
[...]
POINT_DATA 1274
FIELD FieldData 10
VELOCITY 3 1274 double
0.00022766122252 -0.00098660021625 0.00021132182368 0.00014955117858 -0.00068187385499 0.00038813621293 0.00014326869972 -0.00034075162545 -9.0812744404e-07 
0.00063505478102 -0.00040595643708 -0.00061964392487 0.0002522992023 -0.00093628976517 -0.00018694780166 0.00019537997175 -0.00044758136204 0.00020842539905 
0.00016024587766 -0.00026209029945 0.00047543481255 -0.0005295534295 -0.00057975967192 1.6535536813e-06 0.00039359814116 -0.0009259650932 -8.7292503767e-05 
0.00037791692272 -0.00049387799605 0.0004167458019 0.00031243908177 -0.00086106935554 -0.00024864909639 0.0003833030604 -0.00093367443414 1.999240317e-05 
0.00035257997232 -0.00086664255139 5.4558944126e-05 0.00034506792858 -0.0007833870224 0.00049139783885 0.00029070056437 -0.00068096475471 -0.00012698815528 
0.00031657537142 -0.00079696495313 -0.00049335114082 0.00044608386305 -0.001073769846 3.9000688768e-05 0.00038198094682 -0.00092119958004 -9.3400867837e-06 
0.00081020116965 -0.00093006056814 -0.00014531371191 0.00035931933862 -0.00038422322428 -0.00022752398631 0.00028820853195 -0.00083776217034 0.00032821316911 
8.3370102213e-05 -0.00056303688068 -0.00046283729645 0.00018761893398 -0.00042182813506 0.00018049201635 0.00013727575365 -0.00041456678863 -0.00036906977283 
0.00037662541897 -0.00092093551955 4.500937771e-05 0.00021696868292 -0.00051983807035 0.00034120967099 0.00015932731225 -0.00038811323169 -1.4943729964e-05 
0.00037101931324 -0.00083431751703 -2.2674917884e-05 0.00055365540341 -0.0010079097503 -0.00023776058981 0.00023145932369 -0.00065952918489 -0.00046131427578 
4.659742315e-05 -0.0011938397985 2.7543497321e-05 0.0002012357284 -0.00055143135954 -3.8041361231e-05 0.0002498603603 -0.00058877663901 -0.00012990144341 
0.00056833241967 -0.0011524675327 -0.00040639890894 0.0007272755669 -0.0010373154647 0.00034942606599 0.00025966638839 -0.0005697539064 -0.00015176568554 
0.00064427951439 -0.0010396559448 -4.5412868112e-05 0.00022183896114 -0.00058164786726 -0.0001782697674 -4.9392047122e-05 -0.00077375536826 -0.00010138604609 
9.1906559682e-05 -0.00024907596532 1.3484727109e-05 0.00054482723172 -0.0011004276213 -0.00034387034872 0.0003548931181 -0.00072179622531 -0.00025099434141 
0.00023154116115 -0.00061741506174 -0.00019200712094 -0.00012339046973 -0.00038296549588 -1.6200987041e-05 0.00021357054512 -0.00056644048278 -0.0002027931981 
0.00049331753386 -0.00082303058024 1.4669265365e-05 0.00016817195616 -0.00036503643428 -0.0004715044101 0.00025869346443 -0.00060586423879 -0.00013625971232 
-0.0016951769187 0.0016542857716 -2.2623970425e-06 0.00031116031924 -0.00074324322831 0.00037468678738 0.00059874695426 -0.0007065267363 0.00059876855263 
-0.00026997645331 0.00029872114997 0.00066449689782 0.00018937328728 0.0011152515724 0.00074024488851 0.00040313724548 -0.001083220482 0.00020001222318 
0.00021596490645 -0.00040623937637 0.00054864360879 0.00014531112093 -0.00019578056681 2.2554066618e-06 5.8667407695e-05 -0.00013947018997 1.4521795738e-06 
0.00015690758659 -0.00045144515447 0.00058998730208 0.00031908738979 -0.00074673326366 6.9083473734e-05 -0.00094454927011 -0.0011709459463 0.00068099369016 
0.00025224548467 -0.00048894036343 -1.3600291449e-06 0.00036250628411 -0.0003102533567 -0.0003907937631 5.3524622941e-05 -0.0012373632041 -9.3550016451e-07 
0.00032744212491 -0.00055077817053 -5.8505743201e-05 0.00084160143372 -0.00024909052602 0.00010815242948 0.00023747993915 -0.00052033763525 0.0002967853935 
-8.5426320913e-05 -0.00028274286521 0.00074111268436 0.00076361130383 -0.00074834439597 0.00025640810997 0.00056901274137 -0.00068900808681 -0.0005366245148 
-0.00038703577134 -0.00068666043123 -1.7645775969e-05 9.8883949108e-05 -0.00022582494481 0.00023015325949 0.00023934105031 -0.00092841864299 -3.7482711337e-05 
0.00036428040375 -0.0011073328198 -0.00044609141832 -0.0006440942938 -0.00036068111708 -0.00078679562593 0.0002491012323 -0.00069744491052 -6.5946881998e-05 
0.00053314612101 -0.001540925338 0.00047284000812 0.00050042018557 -0.00097368668521 -2.8004703915e-05 0.00039862876059 -0.00095239610566 -6.0130930913e-05 
0.0006274728347 -0.00097983281088 0.00022784945155 0.00091865454006 -0.00058003477489 -0.00025545543546 0.00044686736758 -0.0011228536355 3.4214714272e-05 
0.00029075780023 -0.00069435581545 -7.1439445468e-05 0.00037527453278 -0.00060021009039 0.00013112308117 0.00052935067523 -0.0011504924602 -2.9245715708e-05 
-0.001566090004 -0.00011953970811 -0.0007618278731 0.00012225555328 -0.00066855496569 0.0001074535767 -0.00012101959904 -0.00090004331718 0.00015544675763 
-0.00024043963089 -0.0012749103526 -0.00073521633928 0.00028030064317 -0.0010742607151 1.2416696749e-05 2.8908477552e-05 -0.00079441078055 -0.00016489674289 
0.00050928071684 -0.00086941623661 -0.00034575578883 -0.001419482276 -0.00096453553975 4.1518202498e-05 -0.00012978043441 -0.001326293676 -4.2729264368e-05 
0.00060949046771 -0.0003601423658 -2.8666036984e-05 -8.1560499673e-05 -0.0010037954382 -1.9458548937e-05 0.00034581926204 -0.00049827260162 -4.402568917e-05 
0.0002407105135 -0.0007869969191 8.645377828e-05 0.00070016479876 -0.00085034300516 0.00048162080439 0.00046599636946 -0.00048836350484 0.00026755055434 
-0.00046476765893 -0.0011140621579 0.00062482240498 -0.00047167416198 -0.0011653149718 0.00016399043144 -0.00012328659433 -0.0010817485327 -5.6088119837e-06 
0.0010332510072 -0.0020668325649 -0.0002758391466 0.00013831782494 -0.00079648516539 -4.3074996121e-05 0.00027237750411 -0.0010431711888 0.00017978674542 
4.2240953107e-05 -0.00045155704761 -5.66309566e-05 0.00031739345534 -0.00047931305614 -0.00031159961269 0.00019081084857 -0.00058188651672 -8.8611042848e-05 
0.00010479521779 -0.00048095399493 3.1054963607e-05 0.00029430288872 -0.00032962526246 2.265693132e-05 -0.00074908037018 -0.001106160479 0.00051381672541 
0.00077498348967 -0.00076424467775 -1.5099545593e-05 0.00048835803226 -0.00074020758483 0.00042662288901 0.00029518899455 -0.00096782921543 0.00044314330774 
-0.00014228898704 -0.00054859107433 -1.0229923274e-05 0.0016735071972 -0.0011490500355 0.00025512698301 -0.00051713270027 -0.0012897290664 0.00011286080412 
-0.00010835243 -0.00053228440103 0.00011664608882 3.3083210379e-05 -0.00041592803338 -5.4045411754e-05 0.00021628810748 -0.0009683528443 0.0001381677946 
-0.0001299703273 -0.00058706248432 3.7488324583e-05 0.00094761715164 -0.00084603721073 8.0032393984e-05 0.001816814366 -0.0014806940913 -0.0034207842383 
0.00050234148178 -0.00082443245876 4.1378787806e-05 0.0006830719042 -0.0010666360526 -0.00037854249129 0.00040066500307 -0.0006631056803 9.6546849444e-05 
-0.00010363744441 -0.00055714505602 -1.6705710876e-05 0.00080620147084 -0.0010409079372 0.00017997042921 0.00066451090497 -0.0010848732374 0.00017411104325 
0.00024539810929 -0.00051920439411 2.2345826568e-05 0.00060914577083 -0.00096215220713 1.3285101947e-05 0.00074538351098 -0.00094208430534 -6.2164709356e-05 
0.00062404718163 -0.00096321357191 -0.00058933841412 0.00021006162157 -0.00080377357025 -0.00012022172012 0.0014729399533 -0.0014795644584 -8.459416838e-05 
0.0010021674251 -0.0016146057648 -0.00020782187725 7.2367167419e-06 1.43364315e-05 0.00062088907011 -0.00042048577521 0.0010869301782 -0.00023302911778 
-0.000121312131 9.36647228e-05 0.00048863073378 0.0006929796113 -0.00060729869797 -0.00014530274854 4.1869451722e-05 0.00033414921785 0.00084052837219 
0.00016874132695 -0.00011374144668 0.00014195479214 7.7097353677e-06 -0.0003136316427 0.00096083327869 -0.00031770147121 -0.00080424776531 1.9421871637e-05 
-0.0013352560856 -0.0014406179592 -0.00040145655558 0.00013674295635 -0.0003809572472 8.8328591229e-06 0.00074604643307 -0.0012293690808 8.0223722369e-05 
-0.00013457099295 0.00016494057761 0.00050891843354 0.00024639794573 -0.0011561205361 0.00093763741052 -0.0004398197334 -0.00026613366171 -0.001555460656 
0.00052670770535 -0.00056507962184 -3.5222435261e-05 -0.00038660722165 -0.00058741205536 -0.00026655735085 0.00030710729378 -0.0005036758166 -0.00035384236365 
0.0007193365233 -0.00047766069741 0.0010406821239 0.00059982878443 -0.00089692942591 -0.00032789987237 0.0005062240987 -0.00068232473062 -0.0003683092519 
0.00038544376157 -0.0012710554729 -3.4184256828e-05 0.00045992330852 -0.0010788295925 0.0002110557615 0.00010931585391 -0.00028154534707 9.730546309e-05 
-0.0001120974931 -0.00066550815878 -0.00018245516584 0.0010390909728 -0.0013231323855 0.00044636322232 3.8197363166e-05 -0.000809442638 -0.00012242536036 
0.00084616766807 -0.0010918844763 0.00049762682441 0.00075461156775 -0.00082873681109 4.7175298026e-05 0.00011298600387 -0.0011872330316 5.8236676757e-05 
-0.00071377075123 0.00031845430326 2.2168538098e-05 0.00036517892757 -0.00037026372743 -0.00031303557882 -0.00057816734242 -0.00094933873881 -3.5843976432e-05 
0.00020162481933 -0.00019832579428 -3.2288946046e-05 0.00056455715918 -0.00046724537225 -0.00025794685592 0.00042692644522 -0.00083583510285 2.8335351625e-05 
-4.7910908676e-05 -0.00027133046174 5.5041153018e-05 -0.00025339065918 -0.0012323146392 0.00042481064256 0.00036679019059 -0.0010174867482 0.00049669653383 
0.00045265696359 -0.0011516238618 0.00013020573217 -5.6692815632e-05 -0.00014852472922 -0.0012392190876 -1.2087570658e-05 -0.0016496919827 -0.0006733750373 
0.00046670910745 -0.0018804595075 4.2359212121e-05 0.00048449420053 -0.0013539237783 -2.1957569276e-05 -0.0003112518699 -0.0005316018115 -2.6496924488e-05 
-4.6975849363e-05 -0.00091846823071 -0.00012072976016 0.00065139335719 -0.0008962135804 -0.00026928041736 0.00088764576505 -0.0017364260261 -0.00084389762901 
0.00030936598015 -0.0013107158956 8.4844481442e-05 -0.00012731813587 -0.0015748405309 -0.0011426600571 0.0002019455668 -0.00084811889222 0.00034183564483 
0.00046251492281 -0.00070743820453 0.00021550030191 0.00026701556605 -0.001168007455 -0.00088317025581 -8.5228521466e-05 -0.001128903297 -0.00014006387247 
-0.0010120722684 -0.0020252709925 -0.00078869118626 7.1046557756e-05 -0.00060837837855 0.00017575793337 -0.00080174276655 -0.0016261523621 6.967049376e-06 
-8.4032059696e-07 -0.0012457128952 9.2667317887e-05 1.3655797124e-05 -0.0015495563887 9.3120707799e-06 -4.804797323e-05 -0.00067767827929 0.00013717628637 
0.00018493324998 -0.00082650055099 -0.00025166499708 -0.00084722970293 -0.001822218725 -0.00091186858178 0.00036878854205 -0.00088589201452 -0.00017106400663 
0.00082611883252 -0.00038554124464 -0.00020156350093 0.00096559575923 -0.00077080741138 -6.4013953536e-05 0.0013157015062 -0.00063350937197 -0.00087258009772 
-0.00078494698851 -0.00060185112643 -0.00042168892981 0.00064707458351 -0.0010822079116 2.5238695554e-05 0.0012157200147 -0.0011255970771 -0.00015625276962 
0.00054839387331 -0.0021041823053 -0.00037207136503 0.0010913495391 -0.0016599040187 0.00056960566726 -0.0015285072826 -0.0017830701196 -0.00032139272037 
-0.00013956613852 -0.0018425065285 0.00046254002686 0.0011020783392 -0.00040750277909 -0.00066678364431 0.0012727785485 -0.00045472461621 -0.00065048409213 
0.0011340655863 -0.0014800357459 -6.7475192029e-05 0.0060774614962 -0.0015860783271 -0.0063085182562 0.00084853785508 -0.0015160496275 -0.00012245600414 
0.0024044122878 -0.0033637312061 -0.00063088547745 -0.00013330420202 0.0003225938075 -0.00069394791621 -0.0002703890788 0.00061883003388 0.00025663484398 
-0.00036053488169 0.00034399825791 -0.00053041763092 -5.7288098564e-06 -0.00090060445756 -0.00046590746675 -0.0002312818567 0.00064164136006 0.00039691034962 
-6.363067976e-05 -0.00027984151502 4.566529934e-05 0.00084724317206 -0.00045124857501 6.1035774244e-05 -0.00028289343115 7.0955233895e-05 0.00093471306548 
0.00023838330353 -0.00073922814411 -0.00071072529625 -0.00020297751156 -0.00045767120134 -0.00014995332545 -3.7215040809e-05 -0.00039165227708 -3.0925842652e-05 
0.0021413649959 0.00076607355036 0.00045122952319 -0.00045285379944 -0.00051639054144 -8.1182572627e-05 -0.0003812743294 -0.0012041238126 -0.00069612907659 
-8.5758740149e-05 -0.00034290775101 -0.0005385431768 -0.00027091776347 -0.001180726371 -0.00028619292409 -0.00014949361382 -0.00027927239703 -0.00028480131083 
0.00055654384978 -0.00060527981888 0.00025369275436 0.00096204158308 -0.00068071611888 -0.00027557105723 -0.0019975737387 -0.0050454926841 -0.0021830139648 
-0.00010727065183 -0.00010960280601 -0.00013450047829 0.00056306739378 -0.00083868072401 0.00024278726748 -0.0011031691665 -0.0010704057312 -0.00022590257956 
5.103188541e-05 -0.00050646222288 0.00059594335902 0.00035021388134 -0.00067399850267 -0.00035535106383 0.00016225259858 -0.0014414610794 0.00061588790211 
0.00015854827912 -0.00060940352072 2.6077814631e-06 0.00017436012086 -0.00083684471545 -4.991366932e-06 3.093415278e-05 -0.00036670285616 -3.4983157646e-05 
9.1587474545e-05 -0.000560227474 0.00067717265734 0.00073698588861 -0.00067393239834 -7.6486558686e-05 0.00014907652911 -0.00053701188719 -3.7360501068e-05 
0.0010130373666 -0.00079706646238 -0.00041085038856 0.00022978682493 -0.0016126375951 0.00049571256076 0.0005988272182 -0.0012471513962 -0.000500062017 
-0.00010306875568 -0.0011453148344 0.00023374144246 0.00034809417207 -0.00053003331438 -0.00035451617827 0.00015895887921 -0.00077149159648 8.6811800641e-05 
0.0002552186431 -0.00078090728909 0.00031117350681 0.00042235133213 -0.0010388238448 6.6631352608e-05 0.00052261560822 -0.0012538297855 9.2311139983e-05 
-0.00054594729756 -0.0010000684581 -0.00045037007202 4.5237951484e-05 -0.0015299080387 0.00055180853899 9.4976399833e-05 -0.0012447480892 -0.00018899745977 
0.00034779656987 -0.0016826386763 -6.9708926578e-05 0.00028381988237 -0.00052742862981 0.00025447128456 5.3907778505e-05 -0.00097932860195 2.3430334128e-07 
0.00035775497806 -0.0014286874501 0.00010076726622 0.00013533770311 -0.0016681264817 1.7318272811e-05 -0.00020508995966 -0.0011426197686 8.2068797527e-05 
0.00081069135143 -0.00076811352735 0.00037077809274 0.00074049381939 -0.00080233090419 -0.00031824114315 -0.00016152204757 -0.0014949986605 -0.0003518633899 
-9.633100696e-05 -0.0010021888599 0.00013619267707 0.00051173125144 -0.00063007920173 0.00036727225775 0.0014267161781 -0.0012386248096 1.7675412789e-05 
-0.00031639294603 -0.00089312424433 9.31643065e-08 -0.0007167987519 -0.0021816735175 0.0024789053312 -0.00073505593318 -0.0020659072903 0.00013533866064 
-0.00039973205971 -0.00059826651676 7.3399845668e-05 -0.00010552069946 -0.0015728961095 -0.00042879502259 -0.00035895023165 -0.0013728940336 -7.3777201515e-05 
0.00028884564044 -0.001887399758 -0.00017805392845 0.00043762284808 -0.0016128860217 0.00013042568933 0.00029567315987 -0.0010264504605 -9.5486636514e-05 
-2.1200169012e-05 -0.00072358103926 0.00014865936192 -0.00013666072935 -0.0012013074664 7.0748408353e-05 -1.8031169544e-05 -0.00082848654842 -3.4152273008e-05 
-0.00027358512816 -0.0013750753987 -4.9352070275e-06 0.0013547782528 -0.00054044891599 -0.0008414080071 0.00050645315942 -0.0013979147209 2.8810170848e-05 
0.00056240549966 -0.0019587863198 -0.0019863909797 -0.00096794046947 -0.0017723909334 -0.00047289809463 0.0006050064538 -0.00085195961784 -0.00015291502208 
0.00010240106303 -0.0012514822325 0.00036196391421 7.195272106e-05 -0.00079947846469 -0.0002315933752 -3.0973294076e-05 -0.0011145868649 -0.00012569725384 
0.00037124089506 -0.0022477034056 9.9743674214e-06 0.00027551068557 -0.0011959052429 -2.9780289373e-05 -0.0060713894498 -0.0029274233418 -0.0010933226141 
-2.3522618816e-05 -0.00092610723591 -0.00012006023178 0.00093721256925 -0.000607455929 0.00011806095448 0.0005173465179 -0.00083044172159 0.00043388061776 
0.00046368852856 0.00056524545944 0.00014222093564 -0.00031121353469 -0.00016789716816 0.00025739272467 -0.00023389641384 0.00068711123328 0.00061658482176 
-0.0001655036195 -0.00073126306017 0.001187949589 0.00030887080038 -0.00084314259234 3.6215875522e-06 0.000868558912 0.00055254404978 0.00097121873049 
0.00044409398497 -0.0003590305397 0.0012567723775 0.00038310683065 -0.00033970122376 -0.00045783210237 0.00084372921492 0.00087013312086 -0.0010493202322 
-0.0003857910308 0.00047851049681 1.7394778369e-05 -0.0001748341263 0.00046751289035 -0.0013614278086 0.00042683309426 -0.00014112178537 -2.6047397948e-05 
-3.0920939719e-06 -0.00042159756105 -0.0010086802682 -0.00013885963022 -0.0014172229509 -0.00050032389871 0.0010101806803 -0.00096715544848 0.00022202892864 
-0.00010188933505 -5.8908397938e-05 -6.8131986256e-06 0.001218010248 -0.00019535328799 -0.00083687678644 -0.00036909285996 0.00036109505906 0.00041102207095 
0.00088447665546 -0.0009668966904 -0.00020461361973 8.4081650224e-05 -0.00029815044348 4.2200669529e-06 -0.00025273107914 -0.00022436904493 0.00053662057171 
-0.00049821550871 0.00089215032688 0.0006996329897 0.00029581532955 -0.00058915233935 4.3727415827e-05 9.7987732795e-05 -0.00095335486572 -0.00016130260486 
-0.00014168977751 0.00051635427819 -2.8657001796e-05 0.00024639603711 -0.00064483616208 0.00097686676235 -0.00066193509057 -0.00010524914694 0.00012505188622 
-0.00015000203666 -0.0012763306159 0.0003648184701 0.00023919695199 -0.00083156706754 0.00087491540041 0.0014483013577 -0.00080651293747 0.0010792062358 
0.00070825599154 -0.00014815352117 -3.4309741175e-05 0.00054904390328 -0.00039747577614 0.00010947070523 -0.00038181559703 -0.0012219796342 -0.00017233320798 
0.00050085722147 -0.00027879718593 -0.00078989609997 0.00061580668018 -0.00037750788725 -1.3328131919e-05 -0.0001025607444 -0.0012340766384 7.0471091251e-05 
-0.00034982261664 -0.0011350528301 0.00022746038026 0.00071003944492 -0.0011545754345 0.00041153426375 0.0002370799811 -5.2337047072e-05 0.00084305485302 
0.00030620817536 -0.00043229531135 -3.8069219334e-06 5.6026763833e-05 -0.00035269041149 -0.00036187269959 0.00039143743872 -0.00070751470839 1.8019922004e-06 
6.2619910413e-05 -0.0006900788872 -0.00035859438799 0.00022085844332 -0.0010928361336 0.00044985661295 -0.00043000548339 -0.0010483163975 2.2339153599e-05 
-0.00010311901041 -0.0015049894371 0.0001788433471 -0.00034054019228 -0.00096698447365 0.00013157079915 0.00046874738573 -0.00093473067133 -8.4946746642e-05 
0.00035416207059 -0.0012272863693 0.00016346679699 0.00054766002274 -0.0012176937636 0.00046468454049 0.00041849161471 -0.00088608629302 0.00071904877759 
0.00051861453469 -0.00078977028445 3.950991766e-06 9.6951911359e-06 -0.00062363587596 -3.6941676143e-05 0.00039589434798 -0.0012995819283 2.7633220562e-05 
0.00020527762101 -0.00088838206435 -0.00057366830619 0.0003312091771 -0.001369736849 -0.00038329132995 -0.00033338139096 -0.00083668680185 -0.00060021816601 
-0.00077800060469 -0.0013033947932 2.173396086e-05 -0.00063642690147 -0.001902706656 0.00087909268614 0.00023287898789 -0.00076676282505 -0.00034629889418 
-0.00036138736856 -0.00071562193597 0.00031789277052 0.00059248916808 -0.00058988180802 1.5261211104e-06 2.4674786135e-05 -0.0012750342944 6.9559337297e-05 
0.00023526130444 -0.001264705409 -0.00010063825601 0.0007006185105 -0.0020653865695 0.00017841818364 -0.00028855434156 -0.0016972858191 5.8938215641e-05 
-0.00022839940657 -0.00083075234736 -6.2933528452e-05 -0.00076674251189 -0.00084766134355 -0.0001874275927 0.00088608277598 -0.0022566307615 -0.00058755477621 
-4.1366523302e-05 -0.00091396747681 -1.4356892608e-05 0.00039401444303 -0.0013365110586 0.0003232274507 -0.00010020110747 -0.0014962292095 1.3395076755e-05 
-0.00036837211219 -0.0013338437577 -1.4700268937e-05 9.3809535669e-05 -0.0014996047082 5.3271436426e-05 -0.001275628656 -0.0022245019428 0.0026329138983 
-0.00012628305565 -0.0019850336555 0.00017496039633 -0.00010448046705 -0.0009425782674 7.5070541909e-05 -0.0002509517612 -0.0013248362158 -0.00012738888455 
-0.00026387699092 -0.0022035524764 2.0078683299e-05 0.00019362244604 -0.0010416213926 6.3473891458e-05 0.0029341188941 -0.00061209233219 0.0022689311769 
0.00015493462348 -0.0008214307652 0.00018933759705 0.00010931071946 -0.00087983716239 0.00011207838676 0.00016416511236 -0.0014720278985 1.8407779029e-05 