# vtk DataFile Version 4.1
vtk output
ASCII
DATASET UNSTRUCTURED_GRID
POINTS 1274 float
0.513205 0.553326 0.0379545 0.469655 0.650853 0.105188 0.488184 0.597253 0.268458 
0.494896 0.58722 0.098665 0.423799 0.755647 0.0323155 0.424499 0.768345 0.119785 
0.475681 0.637143 0.212953 0.459538 0.669756 0.268648 0.394163 0.844539 0.0588561 
0.39848 0.812571 0.164982 0.44611 0.698852 0.214772 0.432963 0.738433 0.265757 
0.363067 0.902232 0.0319697 0.343904 0.967839 0.0521754 0.381395 0.878241 0.146396 
0.395006 0.843911 0.231748 0.345544 0.957071 0.259955 0.314198 1.03864 0.0387204 
0.390814 0.913407 0.0865467 0.448058 0.898824 0.11009 0.332398 0.995802 0.130045 
0.408906 0.91474 0.218465 0.310448 1.03765 0.265121 0.352094 0.929284 0.18771 
0.281779 1.10144 0.048711 0.328134 0.987429 0.200773 0.286633 1.10816 0.260298 
0.257917 1.16204 0.0336644 0.35734 1.11527 0.10368 0.301966 1.0687 0.109297 
0.289808 1.25128 0.0382189 0.302984 1.04509 0.200286 0.283679 1.10022 0.17233 
0.333367 1.25503 0.0924637 0.385258 1.15732 0.0377025 0.275691 1.14812 0.110211 
0.421759 1.14949 0.106339 0.260825 1.15022 0.20848 0.340103 1.10663 0.21126 
0.218712 1.25608 0.0332147 0.320225 1.18549 0.0541234 0.319653 1.15646 0.173647 
0.244863 1.19874 0.164485 0.287419 1.18288 0.26484 0.239198 1.22182 0.0935307 
0.37232 1.23109 0.0356631 0.236582 1.23014 0.236361 0.215845 1.25636 0.149491 
0.540853 0.470329 0.0302081 0.611617 0.295448 0.0941605 0.595613 0.358539 0.121927 
0.596951 0.347528 0.198156 0.576188 0.388649 0.266499 0.610365 0.313743 0.262167 
0.540909 0.469499 0.209717 0.508867 0.557458 0.218594 0.603477 0.328697 0.0358989 
0.566603 0.417688 0.159179 0.484067 0.623895 0.0378756 0.608794 0.47458 0.0466885 
0.546056 0.474803 0.0985071 0.549633 0.447982 0.268476 0.56521 0.571412 0.262771 
0.527529 0.512183 0.159583 0.550889 0.668417 0.0308595 0.445445 0.711335 0.0788154 
0.517563 0.697652 0.106459 0.471775 0.753126 0.178282 0.551395 0.547917 0.10179 
0.523091 0.657996 0.266701 0.446366 0.696897 0.145761 0.415104 0.7772 0.214471 
0.501045 0.680543 0.169765 0.554766 0.577122 0.168204 0.494235 0.779815 0.0922195 
0.535723 0.760236 0.146357 0.459195 0.814367 0.0363745 0.508439 0.724127 0.0397544 
0.484562 0.817591 0.150789 0.43714 0.835566 0.112992 0.364734 0.893716 0.269731 
0.499462 0.769207 0.26079 0.538816 0.617202 0.219116 0.563449 0.747459 0.220265 
0.467993 0.815341 0.213639 0.507023 0.705452 0.226363 0.459971 0.889075 0.0399335 
0.520434 0.853332 0.0354383 0.53589 0.790705 0.0326227 0.454071 0.875446 0.177614 
0.495602 0.849571 0.0951374 0.464418 0.869827 0.260663 0.438669 0.803341 0.269007 
0.417294 0.951656 0.0373633 0.373553 1.08915 0.0325886 0.466108 1.00434 0.0331273 
0.400784 0.996405 0.0951217 0.416037 0.947796 0.150983 0.468694 0.964177 0.0914266 
0.485392 0.940532 0.262786 0.419689 0.972241 0.261479 0.535168 0.982744 0.2689 
0.460688 0.951137 0.203318 0.383885 1.02388 0.0323967 0.365553 1.05409 0.0848238 
0.463339 1.03204 0.0902024 0.36288 1.06274 0.158336 0.395624 1.00442 0.196826 
0.441777 1.05084 0.264237 0.377217 1.02886 0.267487 0.483236 1.00299 0.236622 
0.457387 1.13567 0.0385419 0.47054 1.08292 0.12311 0.427506 1.04172 0.139145 
0.360881 1.09005 0.269156 0.526902 1.17821 0.175681 0.48987 1.1018 0.267796 
0.407767 1.08802 0.213386 0.429856 1.13336 0.264219 0.445479 1.12001 0.166956 
0.358789 1.16017 0.260112 0.511192 1.18684 0.0383239 0.498773 1.14656 0.12021 
0.437285 1.20545 0.0341932 0.369991 1.20128 0.100941 0.381268 1.13308 0.165914 
0.338885 1.23655 0.260951 0.45333 1.16728 0.207818 0.402706 1.20626 0.221768 
0.469356 1.19071 0.266121 0.487546 1.25479 0.0362705 0.312766 1.21211 0.137335 
0.46055 1.24878 0.225633 0.300362 1.21257 0.203959 0.474972 1.21146 0.169857 
0.3735 1.22782 0.163677 0.639446 0.231861 0.179735 0.563995 0.413103 0.031668 
0.660079 0.192835 0.0571905 0.660598 0.287847 0.21335 0.640261 0.240902 0.263508 
0.668848 0.174681 0.207398 0.642492 0.224008 0.115761 0.631239 0.40491 0.0363429 
0.592027 0.422454 0.0893358 0.527108 0.509621 0.265846 0.605964 0.486251 0.263083 
0.617299 0.291303 0.158979 0.639536 0.377278 0.246474 0.613946 0.459859 0.135976 
0.588348 0.546231 0.0375218 0.660616 0.42288 0.101239 0.534462 0.635724 0.131399 
0.605288 0.528273 0.146897 0.576354 0.523863 0.211913 0.592832 0.433074 0.220387 
0.613436 0.623316 0.266297 0.603808 0.717244 0.0390308 0.555317 0.609525 0.0645581 
0.570005 0.733117 0.0989687 0.566678 0.697177 0.158028 0.600049 0.709335 0.268229 
0.592143 0.633772 0.175068 0.645011 0.639259 0.211417 0.571741 0.67164 0.224477 
0.597472 0.757775 0.160002 0.58727 0.666215 0.0956698 0.639244 0.786806 0.0390308 
0.561956 0.795423 0.0909609 0.541081 0.813352 0.189978 0.545478 0.831415 0.261832 
0.616493 0.773735 0.265252 0.51547 0.872362 0.211304 0.62561 0.707993 0.201491 
0.600492 0.820098 0.221418 0.585064 0.836714 0.0347558 0.561071 0.858862 0.0930157 
0.565948 0.908504 0.039701 0.504027 0.942788 0.031544 0.552233 0.908837 0.260438 
0.598547 0.966344 0.265548 0.528663 0.862078 0.14639 0.506104 0.922204 0.171255 
0.535827 1.00213 0.0513474 0.522926 0.914902 0.105066 0.47313 1.0583 0.190347 
0.469111 0.994926 0.155241 0.537753 0.988016 0.137549 0.51832 1.04568 0.269178 
0.570602 0.943929 0.192194 0.436586 1.06547 0.034783 0.538683 1.12343 0.0335698 
0.573271 1.06364 0.0351738 0.504182 1.06352 0.0328709 0.552267 1.10694 0.095527 
0.522873 1.04942 0.104306 0.542585 1.00767 0.209056 0.503149 1.12461 0.20479 
0.538969 1.23317 0.0892212 0.574569 1.21072 0.0322881 0.564174 1.17575 0.122848 
0.522836 1.08962 0.153145 0.605105 1.0863 0.268672 0.540431 1.23692 0.159293 
0.534127 1.21088 0.23767 0.567215 1.12867 0.179776 0.556974 1.07216 0.214792 
0.553638 1.1356 0.259467 0.640221 1.20637 0.042644 0.622393 1.20861 0.110032 
0.465272 1.21381 0.100831 0.647684 1.23473 0.22144 0.59567 1.19739 0.186287 
0.773189 1.16625 0.20578 0.678943 0.130984 0.0400396 0.693178 0.119823 0.114114 
0.721562 0.0322023 0.193194 0.682143 0.133945 0.265509 0.697697 0.094859 0.182896 
0.636852 0.261991 0.0387334 0.696513 0.315252 0.0396603 0.701964 0.225493 0.150774 
0.704605 0.265917 0.267352 0.640155 0.405522 0.173673 0.695471 0.199624 0.267449 
0.678912 0.326678 0.266702 0.663295 0.336126 0.138041 0.678849 0.457563 0.040969 
0.656603 0.493982 0.0968413 0.651441 0.355054 0.0775416 0.685432 0.466393 0.157518 
0.650272 0.460349 0.216868 0.682162 0.278502 0.104466 0.729541 0.411884 0.197918 
0.690931 0.353762 0.201485 0.611925 0.643592 0.0351638 0.66068 0.524573 0.0349371 
0.635725 0.558116 0.0892946 0.595668 0.600122 0.119853 0.648332 0.60575 0.156767 
0.664114 0.682709 0.262132 0.639097 0.544988 0.269081 0.687541 0.581356 0.207357 
0.617473 0.577706 0.209361 0.674016 0.545748 0.150208 0.678458 0.515138 0.206406 
0.629807 0.714051 0.122744 0.658406 0.652824 0.0925947 0.697705 0.57217 0.0976527 
0.709247 0.625934 0.140528 0.717031 0.646574 0.206472 0.661887 0.821595 0.268699 
0.665796 0.670957 0.160321 0.624402 0.80156 0.117147 0.648065 0.875018 0.0391023 
0.689595 0.760091 0.0793589 0.708169 0.700699 0.086059 0.680956 0.762106 0.148965 
0.637823 0.774171 0.203151 0.697097 0.715189 0.205131 0.613823 0.866286 0.265677 
0.582465 0.870903 0.182995 0.614959 0.967781 0.0372509 0.668527 0.98343 0.0765547 
0.63117 0.867599 0.10642 0.644254 0.925866 0.0882559 0.587125 0.906489 0.125016 
0.610121 0.965879 0.138887 0.635263 0.98324 0.209856 0.678189 0.847559 0.147867 
0.635579 0.921062 0.233655 0.643439 0.862695 0.207507 0.632441 0.914832 0.169053 
0.631028 1.10691 0.0300624 0.642195 1.0383 0.0393475 0.694687 1.0907 0.035878 
0.57501 0.955387 0.0905829 0.595086 1.01952 0.095524 0.667684 1.04137 0.115418 
0.578386 1.02946 0.260394 0.614141 1.02377 0.161902 0.672485 1.02976 0.183731 
0.616494 1.08846 0.0907779 0.622982 1.14207 0.138172 0.697136 1.16361 0.0370854 
0.595443 1.15263 0.0646072 0.582097 1.07579 0.146002 0.624136 1.05475 0.217015 
0.741747 1.13044 0.0834488 0.636571 1.13163 0.223607 0.661232 1.09092 0.167662 
0.603607 1.19394 0.263611 0.749731 1.21065 0.033559 0.791898 1.17985 0.101416 
0.690285 1.16838 0.10614 0.673332 1.19693 0.168571 0.677325 1.18611 0.261134 
0.721627 0.0828968 0.0341653 0.753468 0.121164 0.0769867 0.718005 0.0494648 0.11962 
0.784 0.0579785 0.12683 0.723586 0.041149 0.262345 0.735668 0.105023 0.243603 
0.707657 0.241498 0.03506 0.750233 0.180816 0.039197 0.768207 0.266046 0.0304545 
0.736106 0.178673 0.1106 0.727204 0.156289 0.172456 0.756177 0.166733 0.263424 
0.77379 0.229539 0.154819 0.769825 0.241928 0.262844 0.731914 0.209148 0.212731 
0.703405 0.390936 0.0363947 0.765979 0.327859 0.0314022 0.721182 0.333235 0.103402 
0.74751 0.251253 0.0925579 0.733735 0.417671 0.0925097 0.764902 0.373261 0.127931 
0.70412 0.387502 0.141374 0.74834 0.319348 0.263027 0.733404 0.281038 0.197323 
0.697095 0.420606 0.260496 0.725543 0.511862 0.0881602 0.75113 0.463332 0.0378093 
0.796206 0.48314 0.0865978 0.755084 0.468274 0.136219 0.790778 0.418655 0.171017 
0.675765 0.49224 0.266651 0.804382 0.511741 0.264177 0.772992 0.39894 0.260576 
0.741564 0.480631 0.245751 0.718243 0.54744 0.263651 0.67034 0.597879 0.0391188 
0.693373 0.664242 0.031532 0.737982 0.531736 0.176395 0.761763 0.579812 0.122326 
0.678875 0.612691 0.2674 0.753281 0.584928 0.216419 0.743452 0.62098 0.267492 
0.673487 0.723921 0.0314268 0.747631 0.747049 0.11197 0.757761 0.690746 0.0386182 
0.728231 0.754276 0.0312097 0.747684 0.654452 0.0972188 0.740303 0.692015 0.26113 
0.688819 0.81511 0.20877 0.727607 0.690792 0.147381 0.75193 0.743988 0.178826 
0.693415 0.743994 0.26954 0.702147 0.932716 0.0399819 0.717787 0.851499 0.0346085 
0.681773 0.823214 0.0843581 0.694384 0.886476 0.0951276 0.740411 0.80881 0.159359 
0.738773 0.836127 0.260085 0.731121 0.770972 0.23049 0.681204 0.884387 0.265521 
0.712579 0.876319 0.207932 0.688104 0.949519 0.268913 0.71786 1.01856 0.0398211 
0.725926 1.06725 0.089344 0.728536 0.950155 0.107477 0.689507 0.944907 0.205826 
0.67212 0.974696 0.138936 0.692638 0.916792 0.15005 0.731165 1.00761 0.154831 
[...]
POINT_DATA 1274
FIELD FieldData 10
VELOCITY 3 1274 double
0.00044321425699 -0.0011760473751 8.9301331607e-05 0.00030764493198 -0.00065862740053 -0.00023753845904 0.00061625899408 -0.0015205778909 5.0802860958e-06 
0.00036701462715 -0.00015963129892 -0.0013751097186 0.00060725424387 -0.0010242294896 6.8735119137e-05 0.00042543648891 -0.00069167121107 0.00055818827408 
0.00019187401222 -0.00084038584102 -0.00021166560721 2.4339710988e-05 -0.00036369789297 0.00017323123036 0.0005688109406 -0.0013893909893 -0.00016616570649 
-1.7363106537e-05 -0.00069733788761 0.00060244897245 0.00055870569043 -0.0018080676603 -0.0014952352008 0.00058744039248 -0.0012298223821 -2.7934711303e-05 
0.00031204843767 -0.00077476972165 1.4119871258e-06 0.00056790029718 -0.0014433142489 0.00067560313249 0.00041082021087 -0.00079691994535 -0.00011859935511 
0.00046008525593 -0.0010285012174 -0.00045105644559 0.00056033896122 -0.001345109826 -0.00016318356435 0.00066666685697 -0.0015738827257 -5.9991104627e-06 
0.00053900945385 -0.00090529272228 -8.182058458e-05 0.00068220735884 -0.00077645650224 -0.00017713696147 0.00051873284226 -0.0012170200052 2.9812581659e-05 
0.00033062858924 -0.00097004491664 0.00011959257813 0.00023088410456 -0.00056647378335 -0.00018271097162 0.00028725711165 -0.00079918966183 -1.3574949445e-05 
0.00066971122098 -0.0016314045091 0.00040565265592 0.00040598555869 -0.00081220245965 0.00015389388071 0.00023417208996 -0.00058366765252 3.9597955725e-05 
0.0006179445526 -0.0015075670239 1.0890986576e-05 0.00055042519507 -0.0011994782884 -0.00063292930564 0.00035109456718 -0.00084577396109 -0.0005327613214 
6.1628689265e-05 -0.0016687455629 1.9117643179e-05 0.0002951120731 -0.00087262073814 -4.7858942204e-05 0.00037153877437 -0.00090752961222 -0.0001516502416 
0.00042929422683 -0.0011434508508 -0.00034774784103 0.00098861689194 -0.001233575904 0.00043076032572 0.00037649521972 -0.00086928143355 -0.00014761428013 
0.00042422480796 -0.001035299623 -0.00015381692937 0.00036492105858 -0.00084095760607 -0.00026347417091 0.00010286916533 -0.0009508904445 -0.00015891706285 
0.00015941145968 -0.00040586776947 -1.0982449283e-05 0.00070292873145 -0.001482901731 -0.00042801666624 0.00030516094531 -0.00087249030253 -0.00012001323177 
0.00033290099231 -0.00083362909902 -0.00025033047785 -1.9646186416e-05 -0.00057896635357 -9.5872531645e-06 0.00037282738722 -0.00090228522773 -0.00039896648764 
0.00079800932538 -0.0014343739133 1.6640043762e-05 0.00017446103422 -0.00042101392201 -0.00012979122026 0.00036026706708 -0.00087162893402 -0.00042303230704 
-7.6018409191e-05 0.0008857198151 3.5806215682e-05 -0.0011145864959 -0.00031926914187 -0.00070461737211 -2.376272913e-05 -0.00032225375251 0.00067223996067 
0.00011999493963 -0.0005678980249 0.00058681774392 0.00022071969296 -0.0017042411257 -0.00089618682493 0.00039919984504 -0.0010898714176 0.00031648010947 
0.00012913243012 -0.0005550499349 3.8677543876e-05 0.00054848354325 -0.00093464313418 -0.00050065568598 0.00011456518584 -0.00025069331215 2.4058416532e-05 
1.3493011201e-05 0.00051635700473 -0.00049436501642 -0.00013629091937 -0.00018073674831 2.6332813641e-06 -0.0013980759147 -0.0014443692283 -0.001573377978 
2.3901762583e-05 -0.00028035081684 -9.1318190132e-05 0.0010949919947 -0.00034751412512 -8.6019230587e-06 0.00037307390461 -0.00083152890826 -2.3994622141e-05 
0.00020139665248 -0.00062157335185 3.8578668707e-05 -0.00017658167567 -0.00123283524 0.00050365678237 5.1488227439e-05 -0.00010302859004 0.00042511970899 
0.00018922317362 -0.00058516203914 0.00030777668879 0.00052052813218 -0.00072328455602 -0.00010116998445 9.607976337e-05 -0.00034826827733 0.0011895120018 
-0.00040252186742 -0.0012203734657 -0.00022861514109 0.00028456416778 -0.00078939106526 -0.00023325861317 0.00045100825066 -0.0013051582137 -2.927597389e-05 
-2.0291247536e-05 -0.00089610288379 -0.00021755674935 0.00029389187497 -0.00074389483774 -0.0004714021132 0.00026633499087 -0.00091417854928 4.9471221667e-05 
0.00092687509592 -0.0015956987794 0.00074596340665 0.00074111273976 -0.0010917390639 1.3853609135e-05 0.00039190747557 -0.00111741873 0.00021659203157 
0.00058508654436 -0.00099409216204 0.00029472196188 0.0005802786404 -0.00075845856454 -0.00047911169526 0.00053567124942 -0.0013338231082 -3.0988588903e-05 
0.00013769694138 -0.00042880110021 -0.00021898719512 0.00065992883845 -0.0012308812888 0.00054737329219 0.0005304682441 -0.0013203186881 0.00022845632112 
0.0002314092854 -0.00093953841772 7.925353049e-05 0.00031391002246 -0.0007958705499 -3.3838512291e-05 1.5906980092e-05 -0.0010911679487 -0.00050828326489 
9.4393796531e-05 -0.0013610826615 0.00082688098521 0.00057062615794 -0.0013933794315 -0.00053068134371 8.5584341635e-05 -0.00094877527925 -0.00023726119366 
0.001066551931 -0.0012114973074 -0.00023708584857 -0.00079112721648 -0.0010019829217 0.00012108633511 -0.0001191847931 -0.0012769935537 -8.6991759807e-05 
0.0008793580289 -0.00056725740285 0.00012069372306 0.00026432926501 -0.0011743492955 -4.1820103859e-05 0.00050909744847 -0.00099122057264 -8.9239915573e-06 
0.00045843380169 -0.0011250282122 0.00035355015559 0.00065932149004 -0.00088743896727 0.00045582658336 0.0009388459423 -0.00059880799635 0.00037317974591 
-6.8080883042e-05 -0.001137009748 0.00072698937212 0.00027020133689 -0.0006723398865 -0.0001808568124 0.00042749460173 -0.0016301580467 1.3944263923e-05 
0.0008471933678 -0.0010851160406 0.00032184322846 0.00055981357803 -0.0016707561338 1.9387274678e-05 0.00024887124923 -0.0013632411181 -0.00017737766656 
-0.0004700975837 -0.00086849857997 -0.00010469092461 0.00013574888513 -0.0010401302872 7.0967072305e-05 0.00032857798182 -0.0009438733551 -6.76450882e-05 
0.00025102083523 -0.00073299476865 -1.6393312939e-05 0.0001247206727 -0.0009552890199 0.00033522087889 0.00019408926802 -0.0012296424755 0.0006465351374 
0.0009259359852 -0.0013761307594 -9.6435194932e-05 7.9806170436e-05 -0.00077362294538 -0.0002891657078 0.00036188734397 -0.00091964457884 0.00044745029045 
-0.00019427353712 -0.00097824733004 -1.6139033643e-05 0.0006864091422 -0.0010797538209 0.00046848347873 0.00055355334331 -0.001052004646 0.0002247223785 
-4.9780922266e-05 -0.00093564682222 8.5027043947e-05 0.00055415070057 -0.0010301906653 -2.3020791988e-05 0.00016031546413 -0.0011722169139 0.00019035299434 
-0.00021920374797 -0.0010021825057 -5.1432828858e-05 0.00022628639144 -0.00061802726553 -0.00010651826804 0.0003467780994 -0.0008833025996 0.00053104442793 
0.00089877817991 -0.001165933215 -6.4710858481e-06 0.00037143943499 -0.0011554922138 -0.00010511266937 0.00020889026068 -0.00089891946143 -0.00062897808488 
-0.00016056500553 -0.00099194083382 1.7601466919e-06 0.00018980468387 -0.0012238857832 0.00013818776663 0.00060943619817 -0.00098662658248 0.0009052117707 
0.00046643567663 -0.0009132704815 -4.2358995636e-05 0.00032260870999 -0.00058313437397 -1.8194324825e-05 0.00024755919619 -0.00083294038253 -0.00010558777251 
0.00058710819471 -0.00092024133619 -3.2279195432e-05 6.7342241493e-06 -0.00092678804206 -0.0001712547296 0.00043680763925 -0.001294037574 0.00014664584711 
0.00041603798749 -0.002348527614 0.00042912817595 -0.00011648426529 0.00048017539356 0.00068282195623 -0.00031634116593 0.00076674874903 -0.00021810017529 
-1.6770109535e-05 -6.7385748496e-05 0.00058204158175 -0.00091109813767 -0.00047835299971 -0.00051108659084 -0.00018239253002 0.00043064254656 0.00049090354106 
-0.00012892431771 0.00013008929664 0.00011988573648 -0.00042070503097 0.00038542770045 0.00026908230598 -0.0021540081893 -0.0023170928428 0.00020375935572 
0.00085650641607 0.00016158404389 2.6942123641e-05 7.8920811332e-05 -0.0006906832365 -6.7091958117e-05 0.00046945451468 -0.00097932441963 0.00055357694697 
0.00021172885562 0.0010173314223 -0.00049090658593 0.00064628135418 -0.00045632211006 0.0015155410649 0.00028170827734 -0.00087113150291 0.00060715467047 
0.00055108501969 -0.00069823169051 -2.14294072e-05 0.00073169725912 -0.00035895160487 -0.00077121715912 0.00023171190794 -0.00070481259341 -0.00019536693305 
0.0010188819925 -0.00040844489516 -0.00037616487518 0.00056155877872 -0.00099146753682 0.00010748149666 0.00035177976994 -0.0005024075473 0.00063079040268 
-0.000216321454 -0.00059340017168 -1.0637841461e-05 -0.00016082420008 -0.0011259422522 -0.00020842417241 0.0002020211327 -0.0010290512084 -0.00038812016362 
0.0007407290958 -0.00073278820867 0.00017786410474 0.00057414316419 -0.001323828465 0.00014883136156 -2.424510134e-05 -0.0011007246487 2.2228092127e-05 
0.00053447699196 -0.00074449929113 0.00069045701225 0.00081915971991 -0.00094184255409 0.00012736787763 -0.00050906356003 -0.00050809115769 -0.00035058816439 
-0.000940824187 0.0003719955425 -3.2762476294e-05 0.00023519098552 -0.00036559396955 -0.00041818141572 0.00034385155116 -0.0012312769844 -3.9901360783e-05 
0.00034176567443 -0.0017484810363 0.00020367251631 -0.00046308378355 -0.00066657405294 -8.1386133999e-05 0.00051797923003 -0.00099554017923 -0.00011451912413 
0.00031395836548 -0.00091415476346 4.7366117313e-05 -0.00021254312629 -0.0010611655521 0.00055754267804 0.00020163479149 -0.00078775901797 0.00029422235747 
0.00045413125676 -0.0012651968192 4.3207358726e-05 0.00033013284168 -0.0010596901819 0.00011100440615 7.7102837992e-05 -0.0017561093409 0.00013878503089 
-0.00042184369509 -0.0011610202202 4.1586154174e-05 4.8258340803e-05 -0.0009552878674 1.8167040506e-05 0.00012400443794 -0.0009929122171 3.495335733e-05 
0.00052235764049 -0.0012365718087 -3.1486640771e-05 7.6935372338e-05 -0.00060401066824 0.00023589305373 0.00017167759871 -0.0009716061791 -0.0007776374476 
0.00054451967774 -0.0014060006302 0.00045505013591 0.00045411124007 -0.0013566606111 -0.00071215775181 -7.1469426165e-07 -0.0010769877945 0.00086555150558 
0.0006625854127 -0.00096101975023 0.00025430497301 0.0004403971452 -0.00046651290282 -0.00029378612905 0.00060030504264 -0.0010313754251 -5.1510332993e-05 
-3.6972250225e-05 -0.00052308509042 0.00016902739329 2.8777283445e-05 -0.0011255303365 -0.00012973658322 1.0761268854e-05 -0.00071392327553 -2.1942830156e-05 
0.00024888933786 -0.0013161656247 -1.9196680714e-05 0.00014523061374 -0.0017859801823 -1.7925941455e-05 6.9718860894e-05 -0.00081456249375 -0.0001776924294 
-0.00028136348117 -0.00076144179819 -0.00032939302266 -0.00027734354466 -0.00063470120213 -6.4409179487e-05 0.00019030532616 -0.0010994512438 0.00021053355426 
0.00035069218824 -0.0010485373728 0.00014151079582 0.0003106371819 -0.00082525342036 9.7040865061e-06 0.00042683030442 -0.0011323847789 -3.6137346096e-05 
2.0192495183e-05 -0.0017152897321 0.00047928402677 0.00019073348767 -0.0011833562948 -4.767401437e-05 0.00037667931275 -0.0011613086949 0.00013574673593 
0.00012163425547 -6.0575780597e-05 3.4127667556e-05 0.00063006404979 -0.0010696254849 -0.00019089264211 0.00038638075888 -0.00074076955622 0.00027166135117 
0.00047267116107 -0.0008960783651 -8.192532591e-07 0.00032034810839 -0.0012935964037 -0.00028234483072 0.00057315782894 -0.0015218391593 -0.00016929735579 
0.00031904405365 -0.00095816524015 0.00018666323659 0.00059393717297 -0.0011237278473 6.9475305222e-07 0.00055927212607 -0.0010153811586 -6.7915614118e-05 
-0.00014629603169 -0.0016102272225 -0.00028670231502 -1.9089683767e-05 4.0170563661e-05 -5.7633190565e-05 4.3824121954e-05 -0.00017606271112 0.00063166779626 
4.2234309863e-05 1.7534661983e-06 0.00051072632177 -7.1089832755e-05 7.0542177948e-05 -0.00015555618445 -8.3372682681e-05 0.00023711795616 0.0011948463771 
7.8221222929e-05 -0.00035348271199 -3.9183498155e-05 -0.00083827057118 -0.00032098548343 -0.00053630322929 -0.000332126524 0.00050427094157 0.00045463897806 
7.2209106726e-05 -0.0003887416022 -0.00026611795912 -3.5911460234e-05 -0.0007028606881 -0.00010890014387 0.00010624723869 2.8220012477e-05 -0.00013667856441 
0.0026492718022 -0.00020216081875 -6.7553462135e-07 -0.0010027153404 -0.00063433548781 0.00058939918043 -0.00076918424772 -0.00067753686673 -0.00060088841908 
-0.0026275425995 -0.0011731835895 -0.00030359257466 0.00056205893327 -0.00082011436189 0.00041149545179 -0.00050310051622 -0.00047135182262 -0.00054955000449 
0.00048962845021 -0.0015953574075 -0.00033403958513 0.0012043820408 0.00035947883044 0.00059331397251 0.00094241912625 -0.0004434852518 0.00064244315891 
0.00047591315733 0.00030587944961 0.00018104597389 0.00029480393067 -0.0012976629775 8.3822690674e-05 -0.0014731687458 -0.00070799034646 -0.00023881836817 
0.000345261278 -0.00012573543914 0.00025520712006 0.00023425116383 0.00047918554437 7.7823638414e-05 0.00055506751878 -0.0013939227029 -0.00019050935594 
0.00012792051326 -0.00074582457639 5.8647717086e-05 0.00089050000794 -0.0010849191375 1.7721447531e-06 0.00046235566657 -0.00095331460574 0.00010577040347 
0.00039833094264 -0.00067454962511 0.00021176717176 0.0010587206436 -8.5197596077e-05 0.00094675645385 -0.00057233909454 -0.0015619585032 -0.000197630261 
0.00081419111948 -0.0011511542514 0.00011905558488 -0.00011915841066 -0.0015193071663 0.00041046232632 0.00034934646692 -0.0020056451818 -0.00050383992396 
0.00045987406208 -0.0010816250943 0.00077196157676 -0.00036153670399 -0.00048018503335 -1.6605694552e-05 0.0023394816014 -0.0029094682234 -0.00019113473998 
0.00029763811904 -0.0012062913916 0.00021045241198 0.00058821771242 -0.00098553580599 0.00040135139466 0.00041964181691 -0.001258957084 2.490599294e-05 
0.0004264806102 -0.001811790363 -6.9019263945e-05 -0.00039002726072 -0.001085594809 0.00037008709681 0.00017893686139 -0.00036126729917 -0.00015008088833 
0.00074732835303 -0.0019220546152 0.00018676510171 0.00023488619481 -0.0011151250807 -0.00021013493789 0.0082592840639 -0.0035083000124 -1.1518648865e-05 
-0.00015292061401 -0.00088260580841 0.0010899576613 8.3486788041e-05 -0.0013418807216 -0.00016079050695 -3.4356054749e-05 -0.0011357247749 1.907967697e-05 
0.0012831673989 -0.00083146184562 0.0002577315621 0.00065855854903 -0.00092832708797 -0.00035354976852 0.00040217002299 -0.001528430823 -0.00057009234793 
-0.00015534115859 -0.00088272090095 -9.9117105448e-06 0.00033147417409 -0.0013503033595 -0.00017459277378 0.0011779791526 -0.0016220125802 9.2459711385e-05 
-0.00019668884765 -0.0019745249546 0.00014946149678 0.0010837705135 -0.0029069557653 -0.0031874973635 -0.00053659788956 -0.00067411276665 -0.00024865711267 
0.00055576706398 -0.00076747575194 2.6721052064e-05 0.00027491646054 -0.0014162765433 -0.00057062880176 0.00030121841826 -0.001398931973 0.00010059844516 
8.4162096547e-05 -0.0010542196063 -0.00018457077173 0.00088683761868 -0.0013145270567 -5.427512348e-05 0.00045116110359 -0.00071241736422 -9.1822745544e-05 
0.00045183828026 -0.0012786213991 -0.0002000016724 0.00028486559536 -0.00095754119295 0.00015593545843 0.00035646218925 -0.0018213482032 -0.00054670459981 
-0.000120421682 -0.0012270160706 -0.00032124962056 0.00045955405473 -0.0013536976278 0.00018556883008 0.00025678555247 -0.0013832193882 -1.1352786422e-05 
0.00024295117031 -0.00092039690373 -0.00014278304096 7.777313183e-06 -0.0012741119382 -0.00019290115802 0.00048221269788 -0.0010424157363 7.2865373997e-05 
0.00051630404343 -0.00095191753084 -2.1287115371e-05 0.00050429146981 -0.0011266713602 0.00023784067821 7.6867125723e-05 -0.0015121703013 0.00030225572333 
0.00011786020488 -0.00068724320452 -1.3935687998e-05 0.00034542773551 -0.0014536481456 -1.552526255e-05 0.0010804548053 -0.0018058233195 0.00084668421752 
0.00055992048094 -0.00087657433358 1.9642931362e-05 0.00070358197586 -0.0014463899993 0.00028663352858 1.1778527659e-05 -0.00098493138404 0.00056469075741 
0.00036912254996 0.00033114449842 -3.1194308793e-05 0.00031573241663 -0.00082116318749 0.00068859185903 2.4913517572e-06 5.9201139906e-05 0.0010675260111 
-0.0009747497422 -0.0013688624533 0.0011557542261 7.3404100379e-05 -0.00031724259901 -0.00057982324112 0.00061395986982 0.00076987347296 0.00075929491442 
0.00029165568566 -0.00011843442499 0.0013863079946 -0.00097814409789 -0.00085453156889 -0.00053520961599 0.00025700485523 0.0012963552038 -0.0010304800717 
9.9376427134e-05 -0.00028003286408 0.0013103729342 -0.00053608733169 0.00014466378918 -0.00065870425296 -3.4686706296e-05 -0.00050141983652 -7.9761322242e-05 
-0.00022929564797 -0.00034528982448 -0.00034777671201 0.00019815279324 -0.00063511348558 0.00023711972801 -0.00067966279038 -0.00034977877535 0.00022061172373 
0.00037613245766 -0.00034531324806 0.00029580598544 0.00061576328261 -0.00076490538303 0.00088397141493 0.00058970284821 -4.8171848418e-05 -0.00014332078914 
-0.00019085486129 -0.0007204047474 0.00043078127541 0.00050807937739 -0.00041832507077 -7.2422369493e-05 0.0002451630101 4.7333122743e-05 9.8109105787e-05 
0.00012714219835 0.00027417422485 0.00056864801019 0.00048882097643 -0.00073397021332 -0.00033470407689 -4.8068984385e-05 -0.00021450249452 0.00093094627409 
-9.814751399e-05 0.00055845883808 -0.00027693710523 -0.0012579012482 -0.0014314447893 0.0011436019186 -0.0010368182921 -0.00045891714583 0.00010425032944 
-0.0013922178429 -0.000347179281 -0.00047974979958 5.3743238599e-05 -0.00075597702869 0.0010110710713 0.00066608080453 -0.00047149891287 0.00039120022429 
0.0012456431757 -0.00019352735819 -2.4930334413e-05 6.8628337029e-05 -0.00027423018184 0.00010893482225 -0.00056946607902 -0.001159064547 -6.6278128036e-05 
0.00067355896985 -0.0002747180985 -0.00058505204602 -0.00029296533713 -0.00065824324403 -2.5845071356e-06 0.0013569833502 -0.0004520639989 -0.00014538758288 
-0.0007238634461 -0.00052888191503 0.00012585541076 0.0006641830713 -0.0010873659317 0.00044068415396 0.00039723703822 -0.00037307783144 0.00081189470429 
-0.00023194037038 -0.00079108373751 -7.5544542154e-05 0.00042355521141 -0.00061360401002 -9.3492860359e-05 -0.00025639056234 -0.00087183324128 0.00010592328886 
-2.0315797281e-05 -0.00026733456442 -0.0010425038511 -0.00051734610499 -0.00092473794125 0.00015647241145 -0.00058212197625 -0.0007655730161 0.00024544347739 
0.00034769091535 3.2761684745e-05 -8.4926934443e-05 -0.00030687402933 -0.00093617465151 0.0002391262961 0.00060676920611 -0.00070410314732 3.5899740065e-05 
0.0016071823515 -0.00234771385 -0.00037666003804 0.00033992463022 -0.00093927964038 0.00037624579256 0.00017333926023 -0.00058140017448 0.00044915556189 
-0.020337527547 0.0090315968295 2.4504275164e-06 0.00012695760429 -0.00098457548928 5.76758195e-06 0.00070893416118 -0.0018009477861 -6.5573736034e-05 
-0.00027719800409 -0.0010010056579 -0.00043497110281 0.00071020058505 -0.0014689535167 -0.00024921190993 0.00010589868599 -0.00058356520891 0.00089807341261 
0.00042688275108 -0.00051166874302 -1.5076671274e-05 -0.0057018835516 -0.0085382147718 0.0019901502148 -0.00022955754739 -0.0021284464212 2.5464536978e-05 
-0.0011848227302 -0.0012612370696 0.00024562076975 0.00016046749581 -0.0019275891831 -6.1702025464e-06 0.00022928097871 -0.0014429108088 2.4042415939e-05 
0.00028732094235 -0.0010614407722 -0.00051631769017 0.00054260559337 -0.0014612297126 -1.1070378144e-05 -0.00015206797747 -0.0017157358904 -7.4315568439e-05 
-0.00011973743008 -0.00075655021938 -0.00047568026143 -0.0006438851551 -0.00099739328868 -0.00056312915087 0.00040683835705 -0.0015095434921 -0.00040999512073 
0.00049751733321 -0.0011649602384 2.737492376e-05 -0.00025437086491 -0.0021411653274 6.1238339483e-06 -7.804101621e-05 -0.0018615892839 -0.00018541128266 
0.00036387450574 -0.0010416219475 1.1769423391e-05 0.00048841432847 -0.0012039226393 -7.0785379276e-06 -0.00042186415169 -0.0021410024256 -0.00031557795956 
0.00029028245952 -0.0019003206961 -9.6823415803e-05 0.00045365331853 -0.00082564168996 -0.00014647656962 -0.00020316500257 -0.002174826294 -0.00042750397597 
4.6006776785e-05 -0.0020159644419 -2.7941646185e-06 0.00029820181601 -0.0016961078653 -5.254305474e-05 1.2503135715e-05 -0.0015541737366 0.00046698362583 
-0.00017304743442 -0.0020212286004 0.00015553986845 0.0003843245299 -0.0011081386634 -4.308679202e-05 4.1633558384e-05 -0.00099343805852 -1.5566544357e-05 