# vtk DataFile Version 4.1
vtk output
ASCII
DATASET UNSTRUCTURED_GRID
POINTS 1274 float
0.511667 0.557056 0.0379547 0.468843 0.652943 0.105448 0.495598 0.603314 0.268458 
0.494059 0.589247 0.0998052 0.422807 0.758054 0.0323092 0.423453 0.770905 0.117131 
0.475087 0.6386 0.211734 0.460653 0.670008 0.268584 0.392156 0.849386 0.0608734 
0.397428 0.815111 0.162338 0.444057 0.703842 0.215856 0.430592 0.744183 0.265769 
0.361457 0.906135 0.0319616 0.341848 0.97284 0.0472424 0.380099 0.881384 0.146368 
0.393251 0.848159 0.232298 0.344354 0.961199 0.256419 0.311877 1.04428 0.0387152 
0.388081 0.917675 0.0870116 0.444606 0.901954 0.111568 0.328611 1.00501 0.127047 
0.407586 0.91856 0.217372 0.308242 1.04302 0.265124 0.350619 0.932978 0.18685 
0.279383 1.10726 0.0471844 0.326422 0.99158 0.197087 0.284411 1.11355 0.260315 
0.26622 1.17135 0.0359926 0.364319 1.12495 0.102674 0.29906 1.07576 0.108444 
0.234805 1.27734 0.0382172 0.301304 1.04917 0.200102 0.283306 1.10529 0.173282 
0.221071 1.29398 0.109233 0.362715 1.17388 0.0367736 0.281238 1.15729 0.114183 
0.409958 1.18084 0.113625 0.258562 1.15635 0.206588 0.33991 1.11913 0.213926 
0.188982 1.33192 0.0332148 0.313025 1.21619 0.0689415 0.326123 1.17096 0.17602 
0.24182 1.21005 0.169429 0.270985 1.18705 0.264841 0.237267 1.2265 0.0964293 
0.308612 1.27949 0.0356631 0.230991 1.24372 0.236249 0.210792 1.26863 0.170444 
0.538446 0.471702 0.030224 0.611059 0.296809 0.0937655 0.594785 0.360524 0.11989 
0.596524 0.348547 0.196364 0.575769 0.389636 0.266503 0.609494 0.315747 0.260973 
0.54 0.471707 0.210171 0.508143 0.559226 0.219502 0.603761 0.329843 0.0361552 
0.566165 0.418762 0.158853 0.484373 0.627802 0.0390228 0.61091 0.478681 0.0476177 
0.545468 0.476208 0.0985477 0.549362 0.449036 0.268461 0.564632 0.574676 0.262769 
0.526858 0.513798 0.159463 0.549035 0.670224 0.0308573 0.444797 0.712898 0.0778089 
0.517171 0.699325 0.105994 0.469231 0.756741 0.177071 0.550232 0.549395 0.100816 
0.525002 0.661356 0.266719 0.445448 0.699125 0.145786 0.413194 0.781821 0.213513 
0.500199 0.683866 0.170343 0.553622 0.57883 0.168716 0.49387 0.784194 0.0906702 
0.533442 0.762468 0.145412 0.455906 0.818089 0.0363707 0.508127 0.727071 0.0397821 
0.484781 0.821124 0.150827 0.437119 0.838142 0.112913 0.362851 0.898287 0.269735 
0.498453 0.771807 0.260792 0.539149 0.621779 0.217661 0.561924 0.749543 0.219747 
0.468805 0.81828 0.213794 0.505203 0.708165 0.227295 0.45956 0.892755 0.0385133 
0.519941 0.856891 0.0338403 0.534624 0.794024 0.0326204 0.453882 0.878332 0.178636 
0.496856 0.853856 0.0944716 0.469341 0.873028 0.260661 0.43848 0.808852 0.269023 
0.415547 0.954447 0.0373466 0.361116 1.09625 0.0325907 0.461651 1.00761 0.0331315 
0.397096 1.00168 0.0924775 0.408576 0.953745 0.149806 0.464499 0.967495 0.0927366 
0.485755 0.944767 0.255309 0.419543 0.974966 0.261483 0.533057 0.988564 0.268902 
0.452738 0.962536 0.201902 0.38199 1.03418 0.0323982 0.36607 1.06235 0.0871378 
0.457977 1.03523 0.0903313 0.356173 1.07133 0.162009 0.393827 1.0096 0.19867 
0.438438 1.05251 0.264241 0.374274 1.02937 0.26749 0.482877 1.00906 0.234118 
0.430223 1.14276 0.0488268 0.446321 1.09674 0.131577 0.418037 1.0431 0.14299 
0.361652 1.09143 0.269042 0.485582 1.19882 0.185612 0.481919 1.10678 0.267181 
0.403335 1.09292 0.216724 0.426423 1.14577 0.264219 0.427805 1.13929 0.173681 
0.355947 1.17301 0.26011 0.440025 1.21517 0.0357078 0.484409 1.15842 0.122757 
0.376101 1.24352 0.0341937 0.358545 1.25761 0.102895 0.367483 1.21968 0.158207 
0.319428 1.24299 0.259282 0.421729 1.19904 0.192607 0.382489 1.2446 0.219607 
0.423042 1.21532 0.266128 0.423516 1.29561 0.0362961 0.292409 1.27384 0.104295 
0.375656 1.30187 0.262515 0.308079 1.23399 0.187891 0.427593 1.25796 0.173725 
0.332633 1.28964 0.157799 0.639506 0.231703 0.177782 0.565212 0.410152 0.0315346 
0.659958 0.193122 0.0547226 0.661571 0.287572 0.211978 0.639858 0.241878 0.262718 
0.668607 0.17528 0.207212 0.642867 0.223134 0.11403 0.632938 0.409026 0.0363281 
0.593075 0.425414 0.0891744 0.526682 0.510619 0.265847 0.603628 0.490181 0.26304 
0.617186 0.291549 0.158495 0.638662 0.377961 0.245286 0.614098 0.461216 0.137437 
0.586711 0.549025 0.0375197 0.660748 0.423923 0.102712 0.533178 0.637977 0.132881 
0.603405 0.529561 0.146681 0.573758 0.527161 0.21148 0.591406 0.434441 0.220409 
0.613184 0.626274 0.266305 0.604265 0.720907 0.0390355 0.555184 0.611863 0.0651873 
0.568766 0.736744 0.0980013 0.565512 0.700464 0.156859 0.600106 0.713682 0.268224 
0.58958 0.636551 0.174 0.642007 0.644286 0.210573 0.573141 0.675448 0.22408 
0.595148 0.76163 0.159368 0.586276 0.667497 0.0967578 0.640266 0.790186 0.0390324 
0.560536 0.803737 0.0929599 0.542825 0.815639 0.188291 0.54523 0.833443 0.261832 
0.61289 0.77891 0.265226 0.517575 0.875185 0.208526 0.625361 0.713031 0.199348 
0.600501 0.826308 0.220827 0.584701 0.838734 0.0382285 0.559016 0.868796 0.0920481 
0.557116 0.917865 0.0397034 0.495365 0.952453 0.0315424 0.551373 0.91092 0.260436 
0.595799 0.9699 0.265551 0.52867 0.865837 0.146632 0.502564 0.930485 0.18099 
0.534352 1.00925 0.0448803 0.521216 0.923339 0.112439 0.468378 1.06545 0.190379 
0.466464 1.00262 0.154128 0.535674 0.992453 0.14076 0.514118 1.05274 0.26918 
0.570884 0.947855 0.193487 0.437978 1.07122 0.0347771 0.524861 1.12093 0.0336771 
0.572681 1.07157 0.0351721 0.481598 1.09837 0.0787765 0.542727 1.11087 0.0964087 
0.509515 1.05597 0.121303 0.547474 1.0134 0.210478 0.485089 1.13724 0.207803 
0.501048 1.22565 0.0830816 0.549623 1.21704 0.0322944 0.551395 1.18148 0.111948 
0.5139 1.10709 0.158304 0.571165 1.11108 0.268624 0.484622 1.24824 0.147474 
0.480431 1.25127 0.232353 0.548277 1.15339 0.186437 0.554278 1.07929 0.213747 
0.529944 1.16975 0.259474 0.547433 1.28357 0.034365 0.587023 1.24569 0.0845224 
0.431028 1.25419 0.0982634 0.516489 1.294 0.177438 0.559958 1.2364 0.16089 
0.611919 1.25754 0.208099 0.679111 0.130546 0.0409807 0.692562 0.121329 0.10888 
0.721563 0.0322026 0.193012 0.681778 0.13482 0.265516 0.697888 0.0943937 0.186778 
0.636384 0.262757 0.0387378 0.693905 0.316056 0.0396647 0.702295 0.225854 0.149065 
0.704042 0.267151 0.267354 0.640587 0.407263 0.175431 0.694964 0.200535 0.26744 
0.678034 0.327772 0.266723 0.661827 0.337998 0.138309 0.68137 0.460716 0.0425711 
0.659549 0.496502 0.0973585 0.653852 0.360195 0.0783376 0.685493 0.468228 0.158803 
0.647228 0.464826 0.216419 0.679734 0.279965 0.10491 0.730702 0.434101 0.199525 
0.690877 0.354156 0.201443 0.610735 0.647088 0.035159 0.663398 0.527622 0.034938 
0.634995 0.559168 0.0887941 0.595184 0.600626 0.120382 0.647803 0.610151 0.156544 
0.663515 0.685517 0.262145 0.650234 0.555256 0.269081 0.686748 0.584348 0.206456 
0.615558 0.580407 0.207716 0.671489 0.549421 0.149317 0.677661 0.518125 0.206397 
0.628305 0.718036 0.122698 0.657872 0.658279 0.0906039 0.696957 0.57358 0.0964991 
0.707812 0.630001 0.136894 0.71966 0.647916 0.206853 0.660295 0.824783 0.268702 
0.664436 0.673992 0.159 0.623728 0.80578 0.117979 0.646151 0.879693 0.0391034 
0.690823 0.764582 0.0798274 0.708161 0.705499 0.0834276 0.68075 0.764468 0.149288 
0.636031 0.779447 0.201442 0.697002 0.71676 0.204764 0.613887 0.871879 0.265684 
0.584379 0.875803 0.179939 0.605695 0.98308 0.0372451 0.662029 0.985236 0.075726 
0.627173 0.871822 0.105811 0.628328 0.932579 0.0827093 0.586914 0.913897 0.125983 
0.610715 0.972301 0.137179 0.627876 0.993598 0.209481 0.675056 0.852482 0.148276 
0.634521 0.926236 0.233422 0.644201 0.869346 0.207608 0.633576 0.922249 0.16858 
0.626283 1.11358 0.0300646 0.641767 1.04893 0.0462979 0.691474 1.10586 0.0363903 
0.57201 0.962055 0.0916242 0.588162 1.02752 0.0952399 0.65893 1.04133 0.12114 
0.576088 1.04341 0.264716 0.602422 1.03298 0.162717 0.674059 1.04624 0.18886 
0.607987 1.09692 0.0904023 0.602502 1.1459 0.142705 0.659518 1.1715 0.0371017 
0.586636 1.16235 0.0545349 0.569866 1.08479 0.147192 0.630786 1.0742 0.224788 
0.697641 1.17118 0.102245 0.61443 1.14432 0.22266 0.652703 1.1013 0.163638 
0.599612 1.20698 0.263608 0.633289 1.23702 0.0340709 0.716879 1.23213 0.0667838 
0.633381 1.19377 0.0976108 0.63721 1.20793 0.166798 0.677612 1.21024 0.262179 
0.722834 0.0835521 0.0341611 0.755481 0.122864 0.0764122 0.718517 0.0482334 0.1163 
0.784104 0.058782 0.124539 0.722855 0.0429214 0.262218 0.734433 0.106193 0.241264 
0.707605 0.242746 0.0350511 0.751287 0.182855 0.0392437 0.7686 0.266152 0.030454 
0.738078 0.178294 0.110717 0.72722 0.156986 0.172641 0.755681 0.167866 0.262038 
0.773718 0.230859 0.157152 0.770089 0.245591 0.262804 0.730493 0.210901 0.21224 
0.703552 0.391446 0.0364182 0.76369 0.327773 0.0328836 0.720715 0.333214 0.102772 
0.745431 0.253072 0.0942437 0.732299 0.41972 0.0926129 0.765498 0.374903 0.125591 
0.704621 0.386789 0.140833 0.747644 0.321263 0.263464 0.735113 0.283067 0.198688 
0.697445 0.419189 0.260487 0.726943 0.514668 0.0850243 0.75372 0.463711 0.0378019 
0.797917 0.487737 0.0854659 0.753808 0.469887 0.133535 0.78928 0.420836 0.169326 
0.673494 0.495375 0.26664 0.80351 0.5112 0.264193 0.774733 0.403195 0.260578 
0.739479 0.481415 0.24788 0.71904 0.549857 0.262899 0.669154 0.601349 0.0391164 
0.69586 0.666332 0.0315341 0.735905 0.535619 0.174451 0.760804 0.58365 0.120858 
0.682142 0.614796 0.267399 0.752333 0.586403 0.217045 0.746722 0.624151 0.267502 
0.67431 0.725411 0.0333599 0.748205 0.751135 0.111333 0.759689 0.694209 0.0384398 
0.728724 0.756285 0.0312212 0.749923 0.658269 0.0969999 0.740491 0.694977 0.261118 
0.687342 0.819722 0.208695 0.725724 0.694816 0.145146 0.751498 0.745769 0.178026 
0.690729 0.747759 0.269539 0.701515 0.936157 0.0399767 0.715759 0.855851 0.0346055 
0.681143 0.827407 0.085244 0.693476 0.891198 0.0961356 0.739985 0.811234 0.160851 
0.737278 0.842454 0.260098 0.736268 0.781023 0.226493 0.680277 0.889946 0.265522 
0.710539 0.881645 0.207463 0.682513 0.955524 0.268914 0.713394 1.01825 0.0398219 
0.711992 1.06953 0.0874973 0.730009 0.972176 0.0986672 0.68355 0.957375 0.205682 
0.674703 0.973995 0.136497 0.695709 0.919155 0.157713 0.725095 1.01875 0.15322 
[...]
POINT_DATA 1274
FIELD FieldData 10
VELOCITY 3 1274 double
0.010438577781 -0.026985217515 0.0016680868701 0.0028015804961 -0.0072667975435 -0.010089696231 -0.050539167256 -0.0063278120281 8.5128240108e-06 
0.00051137813909 -0.0022973352232 -0.017871783101 0.0004755157214 -0.0031539598791 0.0014622571235 0.015896031009 -0.021156431544 0.027147370243 
0.0048071228169 -0.0047531664829 0.052019705207 -0.038509589179 -0.0034963136197 -0.0019495214398 0.0096315365864 -0.015714772778 -0.029401494707 
0.018576088047 -0.043833940308 0.048517040621 0.032821328734 -0.074731801147 -0.015913143313 0.034153949774 -0.088880619435 0.00085401226159 
0.0054293988869 -0.012755248178 -0.0021052413085 0.012437059771 -0.02520059428 0.02282786818 0.02238266052 -0.055034565915 0.0058675331648 
0.037042013565 -0.083304070894 0.069254059052 0.010605322693 -0.054249630764 -0.086713691457 0.015680384469 -0.033362246469 -0.0024292801766 
0.030763607713 -0.07344883911 -0.0076320971507 0.080341459186 -0.031431825773 -0.060890890727 0.06591267229 -0.16104108445 0.12453851705 
0.1272991441 -0.10545980612 0.023783188784 0.07214961696 -0.17476054197 -0.00081490259612 0.049982276076 -0.14904446817 0.15008766353 
0.02893870417 -0.070453403479 0.3272216319 0.057824641605 -0.14041047822 0.12682721616 0.054336421608 -0.14651144151 -0.0121590027 
0.50911251473 -0.076042050854 0.085755464778 0.013654105484 -0.19569483524 0.10798989314 0.063425348012 -0.16050481712 0.059801832396 
0.26788685827 -0.1214686814 0.0012136879022 0.05820034286 -0.13178399557 0.0024525409644 0.10522595899 -0.096189938647 0.045116139605 
0.46721194474 -0.052230851406 -0.14366477722 0.28305824506 -0.41477812885 0.0011849493366 0.096738718953 -0.14982240816 -0.004096161493 
0.16515209089 -0.27839684453 -0.003202105684 0.020079175771 -0.14970468828 0.066497790898 0.073528986071 -0.26682415374 0.0099819150156 
0.10722770287 -0.25682005894 -2.5577571047e-05 0.28028261744 -0.33687561076 -0.11486314722 0.079689582711 -0.26575495319 0.030004363976 
0.034270118432 -0.23067254392 -0.05728641011 0.2545027571 -0.11420031245 -0.00055657569658 0.070053573739 -0.1709375162 -0.031075244231 
0.27308245749 -0.27697828455 0.00020966815538 0.095317076417 -0.23380012872 -0.0075613263895 0.069600271148 -0.16509228109 -0.078162372016 
0.10394518713 -0.25243832298 -0.00032946483949 0.0018131954972 -0.0039350298542 0.0013944257741 0.0050423427373 -0.011701694978 0.020783329008 
0.0050184210354 -0.0100854101 -0.0034967492606 -0.0023150902324 0.0077576733077 0.0021841973555 -0.0052964798141 0.012967275055 0.010245497494 
0.00075511307251 -0.00016965356009 -0.012931310878 -0.0029239997774 0.0093551449862 -0.0017371248553 -0.0083070563077 -0.0039311167571 0.0079333800015 
-0.0013219366867 0.0062614803991 -0.0098616391293 -0.069568562983 -0.057089948746 -0.0084214271553 -0.039488027612 -0.028635231463 -0.0054603782499 
0.0034021226514 -0.0049496914216 0.0010271357631 -0.019304391167 0.0015951006927 -0.0039674415742 0.0084338358136 -0.01251930014 0.00015466756289 
-0.0011651685064 0.0063728455104 -0.0056813025245 -0.0042276449324 0.0082970351253 -0.00074511497549 0.00019480536739 -0.0045639252389 0.0030141528789 
-0.0058222483304 0.0027277168213 -0.012124859348 0.027296192786 -0.041582463779 0.016800155287 -0.0021789866048 -0.0033878171557 -0.014215850706 
-0.028545657995 0.0079316292151 -0.001669586886 0.014172054692 -0.02893600851 0.013519018436 0.026075947887 -0.073402023587 0.022099551508 
0.013568380421 -0.030460371975 0.017573184029 -0.0044463627904 0.00953609633 -0.0055905989543 0.0090234471515 -0.00017455893608 0.014831893291 
0.020715443296 0.013560357493 0.011439393928 0.017078151145 -0.018192521921 -0.00041255308278 -0.0054580838107 0.0085803730287 -0.00064469062374 
-6.3914193783e-05 -0.059512821584 -0.036539248166 -0.029275133001 -0.016783034211 0.010656416584 0.018530310596 -0.039708715804 -0.0017090858387 
-0.0024356745403 -0.0012147798719 -0.001480857648 0.002470752686 -0.031402799096 0.040292712554 0.022380940318 0.02486830474 0.018506340137 
0.079548912579 -0.024350003646 -0.0071165769592 0.022423333522 0.026399313456 -0.0068879375696 0.025242540666 -0.02407623991 0.025224583135 
0.042445139013 0.0079511902832 0.021454575062 0.012319671841 0.0025421244481 -0.00065150372901 -0.00060835720867 -0.022208038617 -0.04790587294 
-0.040296840913 0.0048672246094 -0.025815645096 -0.025301383755 -0.025072186834 -0.0016323202141 0.09129846872 -0.09038781937 -0.001357638587 
0.0091530901534 -0.039597195713 0.00073878538277 0.78928080082 -0.72049854761 1.5008671337e-05 0.11275091002 -0.12959567022 -0.001066669954 
0.028172919196 -0.089909271541 0.045825298942 0.12347178591 -0.10076176712 0.014546830392 0.044522265496 -0.015221838479 -0.040238067567 
0.028580443056 -0.027574082189 0.093175420719 0.13049779124 -0.046685208487 -0.0070241626473 0.027203721142 -0.029855016669 -4.6782534453e-05 
0.13806602442 -0.13609539806 -0.0020900911224 0.0063892534009 -0.14157864416 0.001935086411 -0.14464024789 -0.18056967838 -0.028175382816 
0.005940954381 -0.017582173674 -0.043591993221 0.10474698754 -0.2045585911 0.0066503684299 0.044662585027 -0.088177686194 -0.026322566547 
0.089621956989 -0.019648295909 0.00085161286455 0.13238353277 -0.010307515107 -0.011835122378 0.031105745578 -0.060994938869 -0.021326019404 
0.43424644833 -0.10460291614 -0.041383851408 0.26996732968 -0.11680200274 -0.15121933448 0.15314529276 -0.035508079582 -0.057546485957 
-0.16129300187 -0.014340921929 -0.076757336465 0.45995155111 -0.225790697 0.0042799856965 0.18129148961 0.010731534909 0.13704282921 
0.16074351837 -0.06924699917 -0.09275929549 0.03768313155 -0.20195376063 -0.00071654428414 0.31677433445 -0.15155639242 -0.094317120115 
0.019644961566 -0.24909151349 -0.0035271142471 0.72070268305 -0.12931739282 0.0045656842044 0.19643205912 -0.21930310519 0.08108136342 
0.53772783656 -0.45782577488 0.0017372181204 0.4413201037 -0.48057422545 -0.061173748711 0.17199711086 -0.34686344035 0.071052903815 
0.26254894167 -0.12136250701 0.012103780922 0.51914649412 -0.19279303348 0.10518895361 0.28614913564 -0.2114368839 -0.005395103692 
0.31151934884 -0.18559587671 -0.0057821081624 0.58277708972 -0.49508951535 0.019047326858 0.42181311682 -0.58445153328 0.14056149957 
0.35538887022 -0.21900616552 0.026026897072 0.17326664642 -0.24729901298 0.044465350303 0.35481650692 -0.18835247804 0.065270883212 
0.62310528811 -0.40384689016 0.12653086658 0.010761903186 -0.019948484623 0.010196040365 -0.023093242845 0.058542685999 0.00012700544423 
-0.0013261743692 0.00012330832951 0.0056835219169 0.00023455540471 -0.0086182811151 0.010717848124 -0.0083322207285 0.018063224198 0.031275554287 
0.01155046965 -0.034708969346 -0.019756310119 -0.0010614131528 0.00042986959315 0.0075872613533 -0.024264065594 -0.027586049213 -0.00040862851412 
-0.0049714087121 -0.01380748999 0.012449235003 -0.0027631073484 0.0084423700113 -0.00055156474887 0.0054162269306 -0.031576169069 -0.015558675582 
0.0075951588095 -0.019547843517 0.0055868365048 -0.0066795224278 0.0102433567 -0.012245222569 0.0057669458292 0.0047036729896 -0.0050859601086 
0.0086047658465 -0.011231295139 -0.0022095357638 -0.039690353137 -0.050977109434 0.011909157406 0.0097507123992 0.0023334484421 -0.023298380783 
-0.002266967933 0.009215648551 -0.006076124051 0.0058871866206 -0.00523335303 -0.0049679323052 8.3499731563e-05 -0.0028304758833 -0.0094940013999 
0.012662426268 -0.017372998689 3.8969856511e-06 0.00062331706129 -0.0053673250223 0.00037905917567 -0.01927876791 0.004338695585 -0.0048235440067 
0.0078377488563 0.028756995243 -0.003847234363 5.2635829907e-05 0.0055781509316 -0.016563729464 -0.031684871654 -0.073374238202 -0.0013572318553 
0.0077175489141 0.0058991152518 -0.014932682491 6.0436413271e-05 -0.0046604953843 -0.0024456415915 -0.018896769115 -0.0061082536948 -0.0020825172056 
0.022889201491 -0.0041547797985 0.010147829149 -0.0058226069638 0.01561444835 -0.037476565417 0.024525821029 -0.017727375223 3.9382322061e-05 
0.043020840332 -0.10955409555 -0.057714776237 -0.0091715156998 0.016093375854 0.018173284227 -0.0074901177886 0.001246497707 -4.5881525194e-07 
0.086840650514 -0.08768579578 0.012720236863 -0.0056254079501 0.019934614964 0.017564608398 -0.0081716534811 -0.013902314386 -0.00027093231992 
0.00070926756058 -0.033396958892 0.017533828784 0.028256275326 -0.014017827693 -0.018267362522 0.005676186107 -0.052222923765 -0.010565459583 
0.17372425434 -0.068722043427 0.00056194824839 0.1527316443 -0.10494402113 0.001608423804 0.046040479295 -0.0038039699442 0.00054047488434 
0.035647914211 0.0031291432411 0.00048528378274 -0.022980557523 -0.036554078879 -0.026536544733 0.01136282238 -0.063010494475 -0.15972765889 
0.09916710096 -0.076990266955 0.048975121216 0.020692947907 -0.055671081573 -0.068471743223 0.094385796536 -0.067533980053 -0.056607300416 
0.069493517638 -0.10364376544 0.0075431624745 0.07888784514 0.027802972529 -0.028900693821 0.037582104141 -0.08093091872 -0.002178210925 
0.015781442009 0.010587704344 -0.001557042678 0.022940772166 -0.16250912771 0.0041541244439 0.21640093666 0.1690178012 -0.069677961524 
0.014814854881 -0.028633448209 0.0023018445403 0.17471266504 -0.038715444449 -0.21358677684 0.11744798644 -0.030294511676 -0.010773507958 
0.090714864809 -0.013281473785 -0.18228967522 -0.047598973469 -0.045294220752 0.12545530226 0.24476978778 -0.21659664015 0.022950071743 
0.68081927432 -0.023794659689 0.26182490064 0.43945419197 0.14031747476 0.0047427528158 0.11678852856 -0.034630691929 -0.042741215999 
0.28637630325 -0.20178223294 0.038740625276 0.72525952975 -0.5940165343 -0.0036229665198 0.52221778095 -0.050877561748 0.23070156217 
0.51843118107 -0.38726692525 0.19131530128 0.093205803261 -0.50695182461 -0.087129163316 0.39805248189 -0.072895958211 -0.25071598482 
0.74206225799 -0.91742597627 -0.018254426185 0.52973955246 0.1426234393 -0.0097913223631 0.60265443641 -0.26411683966 0.056136215966 
0.46935913944 -0.33277034627 0.10221106614 0.79124299893 -0.11942249199 0.055416468283 0.58241394732 -0.45922533648 0.3236623462 
0.75220016822 0.07091012187 0.099276845151 0.0017334109491 0.00035752726216 0.0047794840865 -0.0052418194978 0.013646474526 0.028073478547 
-0.00012379480798 -0.00068986433161 0.0046132688036 0.0023584785422 -0.0057532347652 0.00083246352754 -0.0013923479646 0.0028381554874 -0.003755904922 
0.0021144366567 0.00063838314092 0.00012429527051 0.0077330451152 -0.005777432499 0.00098792338162 -0.0098963084695 0.042530297804 0.0214708105 
-0.00231989491 0.0051559154943 0.0017068519813 -0.00091629198807 -0.0059266518067 -0.010339162474 -0.019389750848 -0.00067473765987 0.00031126855585 
-0.0043379352213 0.0027286223427 0.0012145221629 0.0092266359559 -0.017483334041 -0.0042535397794 -0.033919056464 -0.016512196543 -0.0090666405066 
-0.013148387921 -0.01953848788 0.0019288023214 -0.023024203125 -0.023116393241 -0.0011955649048 0.016439393023 -0.012309720942 -0.0084271768379 
0.018173818278 -0.032852661418 0.00065804957564 0.013429399065 -0.013467627024 -0.0022053191993 0.0034795969835 -0.024413927982 -0.0060041638309 
-0.0069088997615 -0.010231509327 -0.0012919478498 -0.0089562516905 -0.0051074668469 0.00099470625873 -0.019507659646 -0.012488329867 0.00021805171245 
-0.0071874054331 -0.022363967662 0.010506964234 -0.0037084438486 -0.0043918245141 -0.014115476531 -0.0092758554412 -0.0009657317733 -0.0062862882159 
0.0023693071759 -0.0073701623942 -0.00092703514312 -0.14520693963 -0.074172961404 -0.00013987691171 0.0023872635555 -0.032950801158 -0.025209763695 
-0.044043753228 0.03403022968 -0.0017979133165 0.0041080797222 -0.0011206267456 0.0038740064518 0.014523878036 -0.030828536965 0.0060262327039 
-0.0019770598164 -0.0068341811498 -0.0092183453035 -0.0052642389154 -0.014026007775 0.0029427013548 -0.010151657776 0.0069768775094 0.0046012896577 
-0.00035833001763 -0.0056452172012 0.011147575349 -0.048144207881 -0.0067270952433 0.011652817615 0.0031474905933 -0.0045450713178 0.001410734697 
0.0019570951825 0.0011716885576 -0.00076159492966 0.02135821058 -0.023739327118 -0.012565612076 0.032945997565 -0.021423200262 -0.0041111928378 
0.038230113422 0.002505157395 -0.0036291903138 -0.0070570402774 -0.010523109697 0.0091610505391 -0.0053206759209 -0.0024234703628 -0.0095524496276 
0.022656456813 -0.017206205715 0.017870441325 -0.0073457596597 0.0055056258433 -0.0019253495391 0.027582541787 -0.032499953498 0.003592106042 
-0.068697673944 -0.03145363079 0.047699161359 0.11930743595 -0.1534467785 0.0021371654989 0.16330396131 -0.080817883634 -0.059462433549 
0.032701653701 -0.02403729591 -0.0063811380187 0.20399299071 -0.13878546623 0.20612725529 -0.0038212258283 -0.072864192137 0.021585327415 
0.17756777839 -0.05174115497 -0.068092845521 0.08200709175 -0.041224060431 0.010053630393 -0.018832907622 0.0015009200983 -0.0028232599455 
0.017952799196 -0.026069810597 0.02040255906 -0.044672302888 -0.026230575502 -0.0040170531252 -0.0081102141451 -0.076524576227 0.026429384749 
0.14903641742 -0.036792171709 0.0010482165882 0.0065491065683 -0.084781208007 -0.044888458248 0.15722665116 -0.11570506975 -0.10045793218 
0.075012787679 -0.050311767485 0.015498531324 0.075711061014 -0.02478166002 0.0570756696 0.13260705604 0.0049385285447 -0.081920639486 
0.030070037989 -0.077859929808 -0.096034493711 0.20827559528 0.049334350929 0.023177908531 -0.050543110101 -0.12170875811 0.006928831681 
0.11313072759 -0.042774432348 -0.050509206857 0.18163959031 0.021365702427 -0.086205295526 0.20794816551 -0.06789796735 0.017570214081 
0.33345597681 0.088559149456 0.04970428218 0.39957340101 0.13660425566 -0.080215303624 -0.098535652306 -0.09471255286 -0.06675138598 
0.45410075629 -0.24511333201 -0.3648987324 0.28306631368 -0.0034333274026 -0.045062445608 0.036672137938 -0.07294712331 0.050441544069 
0.52093304321 0.024051152313 -0.0001812609325 0.65016214116 0.10638982719 0.035459174141 0.70742782362 -0.19173688052 -0.20795859303 
0.30949902842 -0.13533721348 0.12039340232 0.37115781744 -0.17306330895 0.14404986467 0.80608925243 -0.68581668471 -0.00088272164272 
-0.0014047043096 -0.0011376440359 -0.00050949942615 -0.017078837338 -0.020487527946 0.0013832558574 -0.0033363187311 0.0067093454017 -0.0039289233221 
-0.0036175650212 -0.0015865933232 0.0007974234574 0.0015343976038 -0.0029878000591 0.0027673224419 0.0019215115542 -0.0038254710804 1.3137505971e-05 
0.0077332030735 -0.0089080700471 0.0026020907699 -0.0019460787928 -0.018876958913 0.0011066452781 0.0022741146049 -0.004187052076 -0.00061568783646 
-0.0094680807745 0.015919169067 0.0043577805118 0.059245463527 0.026981826189 0.02406844334 -0.029842737704 -0.022179446126 0.0084837210547 
-0.0029993843389 -0.013385270876 -0.0008350387529 -0.020475243978 -0.0375845244 -0.020331765119 -0.0088365517809 -0.0072068375251 0.011578233838 
-0.016201146141 -0.0010258533713 -0.00052739666243 0.008335526243 -0.0062587111404 -0.0033352609385 0.017505069874 -0.016680387332 -0.001372749077 
0.013289857261 -0.010706026504 0.015318560926 0.025010413012 -0.047876194858 0.0011203556517 0.0024199403678 -0.04158372537 0.019769427248 
0.003315750578 -0.012655347451 -0.00073088350544 -0.0060648133635 0.0053173386991 0.00040954436423 -0.00079965696464 -0.0130520083 0.012567036426 
-0.0081044879824 0.011954328803 -0.0035524122947 -0.020845433573 0.0027920062145 -0.0037457416467 -0.033488292958 -0.0064394360319 0.00018227584754 
-0.031664859657 -0.019890855061 0.0029229074569 0.01272886359 -0.012661372588 -0.038294813453 0.0028186717222 -0.0023798574328 -0.017852746184 
0.0038943197825 -0.017176562825 0.0018486960558 0.0028546649071 0.0070739170816 -0.0022795242119 -0.0080846835877 0.0031380000596 -0.00093813935646 
0.0062600318136 0.00089160926257 -0.0044308823874 -0.0039015459716 -0.010818700599 0.041136121274 -0.012620011516 -0.012088365266 -0.0018485849161 
-0.011796920361 -0.010797757711 0.00051652825818 0.0050129866084 -0.011575145161 -0.0013823182261 -0.0063460424543 -0.0071308265823 -9.803832359e-05 
-0.021866528279 -0.094639682032 0.00098904200674 -0.012482692265 -0.0056003530678 -0.0011003862749 -0.022331071362 -0.0016594163849 -0.0011630564896 
0.0013756598809 -0.0060302307572 0.009545525371 0.0054626242351 -0.0058010251044 0.0038125180469 -0.013504882013 -0.0045392146457 -0.0013579509306 
-0.00086257845571 -0.0026821402124 -8.0433786587e-05 -0.010820492929 -0.0076254814401 -0.00010665371202 -0.011995811963 -0.0016178759434 -0.00039780263091 
0.0026392278034 0.015317786153 -0.0011654419147 0.0029323521033 -0.0040563383084 0.0070156400998 0.0046879047004 -0.0040572273645 0.0065501444819 
-0.065347686953 0.021897482011 1.8582122081e-05 0.031434419914 -0.019273344922 0.001261705952 0.035473537912 -0.014367297473 0.0017146023806 
0.02324894255 -0.0004931480554 0.0025548373085 0.031292644409 -0.017336715723 0.0020593813796 -0.0096522537077 -0.0056954064641 -0.013292267788 
0.03939564462 -0.010816553876 0.0014330965816 -0.01959408293 -0.010605406705 -0.00077163762137 0.034661464831 -0.01821689707 -0.0013695105258 
0.1280864826 -0.065189143379 -0.084339156018 0.028135342848 -0.067973277708 -0.0012987088125 0.090920803926 0.096126379348 -0.00010269084579 
0.1667578245 0.048190524477 0.0098155922934 0.023482462424 -0.043718488849 0.023230169294 0.049691058304 -0.090120158694 -0.0039988109191 
-0.033979143789 -0.01397985192 -0.002429704084 -0.022313089951 -0.035571842091 -0.06962380007 0.0056324159881 -0.076672931523 0.051883083889 
0.043886328006 -0.014853260707 0.0010508300079 0.033622801326 0.00033087242295 -4.6573216423e-05 0.047018903304 -0.068840580418 0.071716370211 
0.22179738358 0.11653173005 -0.062455052778 0.30724440629 0.18499304064 8.5221005935e-06 0.67820908218 0.21230458727 0.14166992175 
0.67699409809 0.016870258148 0.093989006971 0.11591308739 -0.11814009299 -0.085102774036 0.025023849343 -0.081365535607 0.0013039815196 
0.32237910486 -0.03371590435 -0.014643966972 0.088595725848 -0.060221888596 0.08789080002 0.23696870214 -0.082418543254 -0.079107584018 
-0.04436498728 -0.17276652382 0.14329698217 0.098744753305 -0.37199367167 -0.080113594529 0.056300286997 0.10465740777 0.05501214576 
1.0409224712 -0.3823620225 0.13882985522 0.71975602694 0.22459066106 0.11578299705 0.36152829722 -0.53570374395 -0.24586323804 
0.53950557696 -0.074673541278 -0.13172626613 0.40721111179 -0.12104047139 -0.28491553632 1.5090874616 -0.14470409218 0.20908439332 
-0.00052168856404 -4.8311562788e-05 0.0023320630362 0.096718000685 -0.091679485329 0.16195670366 0.00031633086471 -0.00028908153772 -0.0008667776862 
-0.0032817564288 -0.0007506702952 0.00041887014341 0.0045677208478 -0.0008977050041 -0.018063175727 -0.0028643016444 -0.00051793165125 -0.00019128381204 
0.0066014227142 0.0036770876119 0.0030637829978 0.0049725100036 -0.0021380791797 -0.0014639726951 0.0025096401251 -0.011538644746 -0.001017999761 
0.0016686460809 -0.0040074094338 0.0014601686966 0.002890329326 -0.010175830275 0.005303703153 -9.2466520695e-05 0.00033181995928 0.007897974123 
0.0021243304791 -0.0074795962308 0.0073448622509 -0.0098693453772 -0.019487269867 -0.0015701631562 -0.0026011268036 0.0027389051434 0.0030438762474 
0.080655491001 -0.032150802737 0.013391803201 -0.1689172793 -0.22507440134 -2.3796250792e-05 -0.010512819995 0.0076485340034 0.0036888322864 
-0.00027788093443 0.028934133713 0.047148496276 -0.0032131778096 -0.030156393198 0.016550540776 -0.010256482582 -0.010201678639 0.015678209413 
-0.0049278022663 0.0056531034438 -0.00030187692379 -0.014341097301 0.0017396242268 0.013180732645 -0.012947522893 -0.019879815109 -2.7006232397e-05 
-0.013271758937 -0.0017261536727 0.0011103079058 0.007949616965 -0.011251857514 0.010000504299 -0.026765750357 -0.012881124879 0.0011377511839 
-0.011646899517 -0.0050025992809 -0.0006673022525 0.0036863457809 0.084044748098 -0.15175742451 -0.0091242048907 0.0060773881123 -0.00031192911067 
0.0036157236983 0.0007009907938 -0.0023122679011 0.00089173848356 0.0017522914733 0.0086928254639 -0.003312818048 0.01422360952 0.0025261623319 