# vtk DataFile Version 4.1
vtk output
ASCII
DATASET UNSTRUCTURED_GRID
POINTS 1274 float
0.511874 0.556545 0.0379518 0.468896 0.652714 0.105378 0.490978 0.601592 0.268458 
0.494135 0.589041 0.0995784 0.4229 0.757824 0.032314 0.42389 0.769832 0.11885 
0.475059 0.63865 0.213048 0.459927 0.671906 0.268647 0.392807 0.847826 0.0595794 
0.397809 0.814205 0.163866 0.445027 0.701494 0.215424 0.431746 0.741383 0.265758 
0.361876 0.905126 0.0319698 0.342629 0.970936 0.0511721 0.380614 0.88014 0.146339 
0.39397 0.846424 0.232123 0.344409 0.959828 0.260076 0.312873 1.0419 0.0387203 
0.38869 0.916454 0.0869815 0.446607 0.900581 0.110325 0.331285 0.998499 0.12958 
0.408635 0.917025 0.21845 0.309824 1.03917 0.265122 0.351434 0.930885 0.188105 
0.280413 1.10475 0.048185 0.327407 0.989194 0.200278 0.286009 1.10968 0.260298 
0.256715 1.16496 0.0336641 0.355849 1.11822 0.10599 0.301151 1.07068 0.109815 
0.28928 1.25569 0.0382194 0.302257 1.04686 0.200328 0.282865 1.1022 0.172849 
0.333316 1.25945 0.0922696 0.382457 1.16056 0.0368622 0.274876 1.1501 0.110728 
0.420372 1.15234 0.106709 0.260004 1.15221 0.208971 0.339818 1.10899 0.211615 
0.218024 1.25775 0.033623 0.318259 1.18951 0.0551322 0.318968 1.15868 0.174042 
0.244041 1.20073 0.164981 0.287901 1.18438 0.26484 0.238374 1.22382 0.0941723 
0.364233 1.2409 0.0356628 0.235186 1.23354 0.24402 0.215012 1.25838 0.150115 
0.542605 0.470105 0.0302112 0.61124 0.296372 0.0940242 0.595009 0.360021 0.120343 
0.596655 0.34823 0.196442 0.575779 0.389657 0.266495 0.609536 0.315729 0.261217 
0.540126 0.471401 0.210102 0.508162 0.559181 0.219428 0.603171 0.329441 0.0358989 
0.566288 0.418466 0.158932 0.482937 0.626639 0.0387549 0.610301 0.477752 0.0478707 
0.545557 0.476001 0.0985421 0.549218 0.448988 0.268473 0.56469 0.573968 0.262776 
0.526958 0.51357 0.159478 0.5495 0.670156 0.0308549 0.444849 0.712777 0.0779507 
0.517269 0.699051 0.105528 0.470554 0.755308 0.178148 0.550311 0.549188 0.100676 
0.523573 0.660649 0.266701 0.445819 0.698214 0.14666 0.414009 0.779863 0.214213 
0.500693 0.682933 0.170929 0.5536 0.57869 0.168559 0.493619 0.782849 0.0915929 
0.534437 0.762733 0.146158 0.457328 0.817112 0.0363734 0.508138 0.726665 0.039752 
0.483774 0.819707 0.150703 0.435833 0.837305 0.113394 0.363606 0.896457 0.269731 
0.498633 0.771293 0.260789 0.538532 0.619739 0.218964 0.56272 0.749618 0.220381 
0.467796 0.81746 0.21369 0.505841 0.708366 0.227375 0.459804 0.891758 0.040349 
0.520558 0.85652 0.0358148 0.53468 0.793605 0.0326217 0.45418 0.877847 0.177911 
0.494056 0.852552 0.0957822 0.466495 0.872073 0.260666 0.43827 0.80621 0.269014 
0.415924 0.95348 0.0373637 0.373091 1.09197 0.0325883 0.464736 1.00653 0.0331275 
0.399472 0.999317 0.0942883 0.41415 0.950298 0.149954 0.466835 0.965912 0.0911269 
0.485655 0.943316 0.260842 0.419675 0.974464 0.26148 0.534854 0.985875 0.2689 
0.458154 0.956043 0.202999 0.382704 1.02726 0.0323967 0.365111 1.05775 0.0853728 
0.463105 1.03389 0.0904112 0.362202 1.06488 0.158701 0.394885 1.00637 0.196963 
0.44127 1.05246 0.264238 0.376636 1.03067 0.267311 0.483637 1.0061 0.235485 
0.455332 1.13868 0.0385399 0.470078 1.0851 0.122873 0.426624 1.04389 0.138807 
0.361339 1.09212 0.269157 0.524625 1.18197 0.177284 0.490811 1.10519 0.267885 
0.407959 1.08992 0.213135 0.429938 1.13503 0.264219 0.444976 1.1227 0.16669 
0.359455 1.16225 0.260112 0.509779 1.18914 0.0369936 0.4971 1.14932 0.122084 
0.434863 1.20834 0.0341938 0.372438 1.20694 0.0960983 0.380645 1.1352 0.166297 
0.338642 1.23839 0.260916 0.452956 1.16993 0.207569 0.399913 1.20706 0.216766 
0.469714 1.19219 0.266121 0.485786 1.257 0.0362703 0.316413 1.21259 0.134684 
0.466102 1.258 0.238812 0.299546 1.21488 0.204099 0.472741 1.21489 0.169508 
0.380349 1.23543 0.157566 0.639637 0.231396 0.1784 0.564612 0.411611 0.0315343 
0.659949 0.193144 0.0551837 0.661274 0.287649 0.212623 0.639789 0.242027 0.26351 
0.668906 0.174541 0.206834 0.642932 0.222957 0.114618 0.632257 0.408116 0.0363381 
0.592788 0.424804 0.0894074 0.526681 0.510627 0.265844 0.604175 0.489175 0.26286 
0.617362 0.29114 0.158733 0.638675 0.377943 0.245271 0.613883 0.46116 0.137239 
0.586893 0.548324 0.0375176 0.660588 0.424615 0.102092 0.533414 0.637725 0.132381 
0.603561 0.529576 0.146546 0.574445 0.526507 0.211556 0.59169 0.434359 0.220374 
0.613147 0.625657 0.2663 0.603533 0.720179 0.0390337 0.555075 0.611666 0.0650486 
0.568698 0.736491 0.0982608 0.565796 0.699933 0.156965 0.599723 0.711747 0.26823 
0.590092 0.636065 0.173972 0.642474 0.643318 0.21071 0.572176 0.673751 0.224256 
0.596176 0.760688 0.159933 0.58639 0.667482 0.0962719 0.639935 0.789245 0.0390279 
0.561294 0.798681 0.0906821 0.541777 0.815576 0.189831 0.54487 0.833337 0.261831 
0.615675 0.776272 0.26525 0.516391 0.875051 0.210101 0.624987 0.710995 0.20026 
0.600308 0.823931 0.221511 0.584896 0.838336 0.0367196 0.560502 0.863619 0.0935139 
0.565058 0.912536 0.0397016 0.502196 0.946726 0.0315422 0.5521 0.910719 0.260437 
0.597991 0.968563 0.265549 0.527771 0.86434 0.146779 0.505022 0.926163 0.174045 
0.534292 1.00596 0.0511558 0.522285 0.919042 0.107949 0.473559 1.06093 0.188651 
0.467525 0.997037 0.154793 0.536679 0.990276 0.139147 0.518039 1.04846 0.269178 
0.571551 0.946729 0.192969 0.436029 1.06805 0.034783 0.542854 1.12836 0.0335714 
0.573118 1.06666 0.0351733 0.503257 1.06974 0.0421377 0.552192 1.10891 0.0971784 
0.522342 1.05154 0.105407 0.543828 1.01062 0.209779 0.502678 1.12709 0.205422 
0.538008 1.2348 0.0882423 0.575506 1.213 0.0322878 0.562683 1.17819 0.123585 
0.523568 1.09337 0.152842 0.604172 1.08878 0.268673 0.539911 1.23943 0.158251 
0.534301 1.2146 0.238956 0.565787 1.1331 0.180997 0.558999 1.07502 0.21424 
0.554209 1.13948 0.258814 0.641031 1.21048 0.0439746 0.626234 1.21154 0.112121 
0.464137 1.21641 0.100313 0.654773 1.25137 0.211631 0.595588 1.20134 0.186388 
0.758037 1.18955 0.203494 0.679067 0.130669 0.040879 0.693525 0.118999 0.112434 
0.721561 0.0321989 0.193115 0.681889 0.134553 0.265517 0.698245 0.0935297 0.181018 
0.636557 0.262741 0.0387354 0.694346 0.315787 0.0396729 0.702708 0.225431 0.14906 
0.704046 0.267243 0.267353 0.640388 0.407013 0.174975 0.694686 0.200337 0.26745 
0.678131 0.3279 0.266706 0.66218 0.337193 0.137964 0.680766 0.459767 0.0425518 
0.659138 0.495776 0.0972844 0.652444 0.358589 0.0779267 0.685737 0.467729 0.158565 
0.648445 0.463038 0.21674 0.68051 0.279192 0.10472 0.730764 0.433709 0.199559 
0.690707 0.354034 0.201227 0.61098 0.646456 0.0351638 0.66256 0.526624 0.0349422 
0.634962 0.558623 0.0889615 0.595165 0.600387 0.120174 0.647732 0.609212 0.156593 
0.663695 0.684893 0.262139 0.637648 0.547696 0.269081 0.686629 0.583488 0.207082 
0.616556 0.579527 0.208089 0.671881 0.548603 0.149792 0.676912 0.517356 0.206265 
0.628267 0.717072 0.122335 0.657873 0.656943 0.0909633 0.69676 0.57349 0.0970155 
0.708058 0.628968 0.137828 0.717162 0.648233 0.206995 0.660673 0.824498 0.268702 
0.664669 0.673322 0.159192 0.623832 0.80381 0.116867 0.646879 0.87843 0.0390986 
0.690394 0.76356 0.0798793 0.707856 0.704558 0.0842211 0.679995 0.764276 0.149266 
0.636553 0.77725 0.202996 0.696577 0.716629 0.204681 0.613663 0.870192 0.265679 
0.582461 0.873848 0.181862 0.614654 0.971323 0.0372499 0.668646 0.98619 0.0762708 
0.628581 0.869982 0.10592 0.643038 0.928353 0.0891882 0.586865 0.910408 0.126494 
0.609934 0.968967 0.138954 0.633731 0.985886 0.209358 0.67549 0.85118 0.14806 
0.636099 0.924069 0.23382 0.643673 0.867629 0.206363 0.633535 0.918509 0.169136 
0.630677 1.10861 0.0300649 0.642104 1.04172 0.0405147 0.694702 1.09392 0.0358782 
0.573765 0.95858 0.0914103 0.5936 1.02285 0.0954589 0.667166 1.0436 0.115891 
0.577954 1.03172 0.260353 0.613195 1.02703 0.161681 0.671237 1.0328 0.18438 
0.616569 1.09132 0.0912187 0.62152 1.14468 0.13908 0.697117 1.16683 0.0370852 
0.598368 1.15715 0.0671134 0.583306 1.08081 0.147578 0.623529 1.0571 0.217225 
0.741689 1.13329 0.0832205 0.636774 1.13381 0.224117 0.661109 1.09392 0.167447 
0.604368 1.1976 0.263609 0.749244 1.21439 0.033559 0.781771 1.19123 0.100988 
0.689816 1.17039 0.106165 0.673151 1.19973 0.16831 0.677976 1.18968 0.259012 
0.722403 0.0832935 0.0341619 0.75441 0.122073 0.076395 0.718376 0.0485646 0.11679 
0.784054 0.0586257 0.124842 0.723014 0.0425428 0.262519 0.73468 0.105835 0.241658 
0.707774 0.242418 0.0350591 0.750853 0.182075 0.0391987 0.76865 0.266116 0.0304464 
0.737523 0.177571 0.110653 0.728204 0.156993 0.173073 0.755404 0.167475 0.2634 
0.774171 0.230644 0.156517 0.769674 0.24455 0.262331 0.730488 0.210663 0.21246 
0.703088 0.391287 0.0363958 0.764027 0.327777 0.0322841 0.720521 0.333187 0.102974 
0.746381 0.253052 0.0932421 0.732189 0.41936 0.092508 0.764532 0.374415 0.126155 
0.703695 0.387177 0.140749 0.747568 0.320878 0.263464 0.73467 0.282795 0.198693 
0.697088 0.419683 0.260499 0.72648 0.514457 0.0854433 0.753076 0.463778 0.0378083 
0.797496 0.486339 0.0859983 0.754131 0.46966 0.133504 0.789291 0.420372 0.169294 
0.674001 0.494732 0.266634 0.803764 0.511399 0.264176 0.774152 0.402639 0.260579 
0.73999 0.48124 0.247537 0.717806 0.548886 0.263651 0.669041 0.600293 0.0391234 
0.694954 0.665593 0.0315344 0.736346 0.534625 0.174734 0.760881 0.582685 0.120987 
0.678489 0.614431 0.267401 0.752235 0.585462 0.217493 0.745171 0.62361 0.267491 
0.673548 0.72473 0.0331169 0.747538 0.750177 0.111139 0.758766 0.693506 0.0384557 
0.727975 0.755589 0.0312073 0.749108 0.657455 0.0969774 0.739829 0.694633 0.261124 
0.687314 0.818482 0.208603 0.726117 0.693938 0.145749 0.750929 0.745911 0.177915 
0.693779 0.7458 0.269539 0.702019 0.935113 0.0399797 0.716606 0.854923 0.0346134 
0.681135 0.826657 0.0847678 0.693872 0.889842 0.0958676 0.739304 0.811121 0.159861 
0.739326 0.840507 0.260085 0.734543 0.778436 0.227935 0.681374 0.886841 0.265524 
0.713576 0.878617 0.206177 0.687585 0.952029 0.268911 0.717753 1.02193 0.0398204 
0.724933 1.0704 0.0896907 0.731654 0.964487 0.101744 0.689509 0.949784 0.205707 
0.672087 0.976647 0.138542 0.694067 0.919576 0.151136 0.729463 1.01166 0.155976 
[...]
POINT_DATA 1274
FIELD FieldData 10
VELOCITY 3 1274 double
0.00033345190044 -0.00058349091213 -0.00032515566361 -4.1783265984e-05 -0.00041676696158 0.00014371340162 -0.050090608368 -0.020727820918 1.3748018371e-05 
0.00022988597226 -0.0010062246934 0.0014231528155 0.00086825688904 -0.00063782375051 3.1376788681e-06 0.00027883056682 -0.00032159031762 0.00045017402019 
7.2094088584e-05 0.00030836010569 0.00044860948401 -0.00034700709481 -9.3811724137e-05 -5.7076700685e-05 0.0001774446055 -0.00093281297307 -0.00022285741818 
-0.00016228216218 -0.00044417861385 0.00046562429463 7.799916247e-05 -0.00032470174499 -0.00029686632794 0.0004170449797 -0.00090802676802 -0.000124168666 
0.0002628891597 -0.00050535968899 4.6184246964e-05 0.00027795653098 -0.00041815948968 0.00057229383913 0.00032480463903 -0.00035670773167 -6.8975827523e-05 
0.0001827290446 -0.00063133532 -0.00020632224259 0.00035390860462 -0.0008375764276 -0.00083857134557 0.00045813835761 -0.00045689822328 2.7313427777e-05 
0.00051272443885 -0.00042069671501 -9.5265229397e-05 -0.00051262538838 -0.00053711186582 0.00058791585398 0.00050642646637 -0.0010505874727 0.00057275773041 
-0.00064162495048 -0.00028180956648 -7.6651962747e-06 9.3316658843e-05 -0.00013865306898 -0.00021188140972 -0.0001099146304 -6.2693461328e-05 -0.00058032395506 
0.00024618906817 -0.00048319675091 -0.00059997087362 4.853836476e-05 -0.00015742103394 -0.0004314328406 0.00015803077097 -8.4059375838e-05 2.2508993405e-05 
0.00010743543763 -0.00029155647702 5.050128066e-05 0.00026704954773 -9.0190043892e-06 -7.3265983372e-06 0.00038717767736 -0.00042886679353 -7.1836482488e-06 
0.0040259505081 -0.0075824864213 2.0198897847e-06 7.6238131599e-05 -0.00026677616349 2.8661465515e-05 0.00014311617554 -0.00043312999178 -0.00025673063673 
-0.025078269534 -0.021172713542 -0.029380420914 0.0088162075727 -0.0019818700187 0.0023757904618 0.00017600846673 -0.00043381928362 -0.00057336724571 
0.00041350638619 -0.00046036080364 0.00069680552357 0.00012983639312 -0.00033747671724 -0.00041192760531 2.4929627265e-05 -0.00033899134613 -0.00023547157756 
0.0045202716363 -0.010987074497 -0.0094907812583 0.0042950945511 -0.0082581350078 -0.0029593433917 0.0054627949285 -0.00083766395951 -0.004239327625 
0.00014270213361 -0.00039693263322 -0.00060699147731 -0.0001483272554 -6.1095795478e-05 3.0883361543e-05 0.00033177763172 -0.00075637829541 -0.0023636187434 
0.028107157795 -0.028361117711 -5.2863039692e-05 0.0038788933399 -0.0094729661326 -0.032177348968 0.00030686294272 -0.00076789475835 -0.0023753170657 
-0.0085383062042 0.0035918693512 -5.7867397838e-05 0.0011283677623 -0.0011663835601 0.0010071629005 0.0001461639799 -0.00050370542986 0.00059500601311 
6.0263706585e-05 -0.0004251239693 0.00039776705792 0.00034292376429 0.00061926653709 0.0011212432041 0.00034670512353 -0.00099067274352 0.00017130824046 
0.00037115286566 -0.00099221123315 0.00017161252693 0.00023116931747 -0.00020259045512 -0.00025391352162 0.0001122520914 -0.0002977618875 8.0552553741e-06 
0.00037337868511 -0.0010337053989 0.00032748349018 0.00033231047476 -0.00080350515845 0.0054615454168 0.00043447318814 -0.00099172281951 -0.00042634004984 
0.00044015260455 -0.00050745447323 0.00011650744664 0.00032072468764 -0.00044581561339 -0.00033614738842 3.9970323578e-05 -0.0013422378846 -3.6537152386e-05 
0.00031611767403 -0.00081678881813 -1.3357177516e-05 0.0009271348797 3.0880305479e-06 -2.8416426077e-05 5.2566290423e-05 -0.00019801267713 0.00044475759105 
0.00030707080704 -0.0006159320756 -9.2214896352e-05 0.0004090422607 -5.4458190245e-05 3.6413463457e-05 0.00083481150396 -0.00054439187923 -0.00082487964006 
-0.00061609409457 -0.0012195913277 9.5179538463e-05 0.00055984658216 -0.00028483901157 0.00043760863055 0.00029694458478 -0.00068082503745 0.00017953232786 
-8.0838525097e-05 -0.00030730869656 -0.00042217135613 -0.00059054564055 -0.00024270982733 -0.0004786858811 -0.00082293300916 -0.001156891012 0.00043018774297 
0.00065962001454 -0.00044042137914 -0.00013402141924 7.9999468157e-05 -0.00056712851348 -0.00012685764319 0.0001292144658 -0.00071199664528 0.00014919285452 
-0.00033272066685 0.00031429069118 -0.00017722546664 -0.00036015686448 -0.00052166679889 0.00027459545339 0.00028367217202 -0.00071875422994 -3.0278861937e-05 
1.6583050367e-05 -0.00034789616465 -0.00013322845084 -5.2168586301e-05 -0.00096101566858 0.00033968573835 0.00014347218423 -0.0012146531795 0.00042054365962 
-0.00077030976717 0.00021118672104 -0.00016934163684 0.00020834864322 -0.00097251700947 -0.00038173637648 -0.00070207509616 -0.00092127423913 0.0011888564978 
-0.00077371549169 -0.0010545408756 -0.0001795386013 -0.00015080409124 -0.00084868462937 -8.1170143542e-05 0.00014661799474 -0.00015986827427 0.00082440682615 
8.7039399283e-05 -0.0012385628476 0.00030883287609 -0.0022708703529 7.3858182203e-06 4.9957018595e-05 -0.00069148762897 -0.0012759533849 -0.00015138175947 
7.135541241e-05 -0.00011713608508 -0.00010434160591 0.0020300107297 -0.0011006547575 0.00018719800208 0.0016779861719 -0.0014856826196 0.00010185368901 
0.00039901909083 -0.00095036805971 0.0003704551494 0.00065770728546 -0.00051974465241 0.0013182745932 0.00066128332342 -0.00096324208077 0.00022257984348 
-0.00038375018787 -0.00052348315953 0.0024699830777 -4.081570313e-05 -0.00033648098028 -0.00011256571767 -0.00010236107119 -0.00033080618328 4.2430675369e-05 
0.0039459704775 -0.0054188805362 0.0021438350169 0.0020565447897 -0.0019116895458 -1.543409235e-05 0.00050988940309 -0.0010027165637 0.00024807378954 
0.0022359065948 -0.00098239742657 7.6382113483e-05 0.00058827270129 -0.00044506947935 -0.00027255693433 -9.3999822253e-05 0.00020757309413 0.00014492685643 
0.00016772968697 0.00027007518619 2.4793666113e-06 0.00031341985821 -8.01040783e-05 0.00018004895644 -0.00031645117803 -0.0011823198322 0.00068470520652 
-0.0006817589947 -0.00096067038175 0.00012414225387 -0.00047649242553 -0.00082183860835 0.0007628654798 0.00075161126171 0.00012236338463 -0.00072753898062 
-0.00012757376826 -7.0386764364e-05 -1.7074473502e-05 -0.0032304932525 -0.0066490743535 -0.012199653322 -0.00015551295705 -0.00078411489703 7.7774338018e-05 
0.00020234333474 -6.224077395e-05 -9.4522783502e-05 5.0013672639e-05 0.00017711062865 -0.00014171865818 0.0015923241547 -0.00086105636832 -6.7689281636e-05 
-4.0343245148e-05 -0.00013368691601 1.5155925778e-05 1.2481425553e-05 -0.0012287894484 0.010234359883 0.0044007785118 -0.0029565668215 -0.018353918959 
0.0060618526775 0.00097436892319 -4.4704265178e-05 -0.01113869354 -0.0076065488258 0.016803147986 0.0013947708116 -0.00083483477376 0.00091050556751 
-0.00014508303938 -0.00014742540568 -0.0014946050401 0.0018419879411 -0.0012300454456 0.00035835990567 0.008307392033 0.0047255215289 0.012941658539 
0.0043113449703 -0.0029029362207 0.00012789551851 0.0062429758674 0.00085492455808 6.2659770885e-07 -0.01158847944 0.0052418712255 0.0050575766396 
0.19649685351 -0.078343468235 -0.20710889368 0.0015329697269 -0.0036894631353 -0.0014518805893 -0.0001704630339 0.0018022377936 0.0033035698457 
-0.03625832088 -0.0096104483461 0.020851203585 6.2312951014e-06 -0.00040660101825 0.00016170970308 -0.00058022233388 0.0014979893564 2.0507948855e-05 
-0.00030886183635 -7.4901605217e-05 0.00053802464909 0.00024286058699 -0.00065161219139 0.00036679039455 3.3555385976e-05 -5.9670501418e-05 0.00070283853366 
0.0002805396644 -4.3614800546e-05 0.00017006157295 -3.12701609e-05 -0.00015750723378 0.00062212914255 -0.0010624675829 -0.0019388373172 -1.5731209647e-05 
-0.0017254736377 -0.0013566423219 -0.0012932923976 -8.0064137015e-05 -0.0001218534621 2.3982745717e-05 0.00059258654886 -0.0010156321599 0.00021254074752 
-0.00036914575776 0.00044397516389 0.0012321939404 0.0001477547269 -0.00067256152306 0.00047522468282 -0.00032875198453 -0.00042831401184 -0.00025746111574 
0.00043100740576 -0.0011166261281 -1.372768054e-05 -0.00077623670594 0.00015653127222 -7.7402857494e-05 0.00075851583116 -0.00070321395869 -0.00066986453868 
0.00035332709424 -0.00072874142426 0.00095463795304 0.00051527257743 -0.0011092561421 -0.00040670033993 0.00090215237653 -0.00036848327679 -0.00020513692568 
0.00050068926731 -0.0016835911799 -7.8991873791e-05 0.00026221313333 -0.0014172233413 0.0001552941622 -0.00068962443296 0.00020161059158 0.0005968105566 
-0.00023188579136 -0.0020932951977 0.00023219066904 0.00057618956584 -0.0011555353303 0.001293799193 -0.00011158761281 -0.0010338811109 -8.2631695117e-05 
0.0012122159751 -0.0011634488547 0.00011071755333 0.0011591716943 -0.0012504095135 3.7353297214e-05 8.3251731081e-05 -0.001272174967 0.00032906934874 
-0.0015288509689 0.00031838806169 0.00012567149259 0.00032754541979 -0.00039922809266 -0.0003090972241 -0.00091666098159 -0.0011043588894 -3.0979828702e-05 
-0.00066236368512 -0.0011004213528 0.0002700035354 0.00052240668696 -0.00097555992515 9.7595139225e-05 0.00064296735571 -0.00060449104846 2.7952715649e-05 
-0.00014567861242 -0.00081620286591 -9.2824874211e-05 -0.0018281425593 -0.0035605986265 0.0040841703078 -0.00039628611538 -0.001181093199 -0.00022710835215 
0.00045941769753 -0.0010152701963 0.0001993988558 -0.00029546902622 -0.00033429152602 -0.0010754390165 0.00029870429687 -0.0014193365241 -0.00035024839055 
6.9250127855e-05 -0.0011876305182 -6.6970789946e-06 0.0041275280104 -0.0054361134774 0.00034775145437 -0.00011740933903 -0.0005058749105 7.4516701977e-08 
-0.00026612913556 -0.00025249760341 -4.3581253456e-05 0.0008189947704 -0.0011681982757 -0.00017390356354 0.004116076451 -0.004222318691 0.0012246112653 
0.003806622658 -0.0053425687581 -0.00091295953105 -2.5095610903e-05 -0.0015135996788 -0.00017735035149 -4.1336827288e-05 -0.0014627253393 0.00027721515779 
0.00083681916483 -0.0004816438376 -0.0016671436497 0.0010744650586 -0.00019631499885 -0.00064158389199 -0.00067547865724 -0.0010256835768 -6.0603492432e-07 
-0.00040321227172 -0.00096967857474 -0.00019116211394 0.0019182473136 -0.0015891752082 0.00035670891472 -0.020431798552 -0.011780359636 4.3446145068e-05 
-0.0012155365416 -0.0023099042145 -2.7196182168e-05 0.01512195523 -0.016689977869 -0.11793745986 -0.0054131737077 -0.0019941358562 -0.037966671006 
0.0029591191153 -0.001167209158 -0.0029042578238 -0.0012515852364 -0.0012657453153 -0.00017916031213 0.0012787639338 -0.0020001625854 0.00034958673433 
-0.0036508742951 0.006984102042 0.0051811730682 -0.017815794746 -0.0039420211243 -1.2135360534e-05 0.0030401622661 -1.2731017388e-05 -0.010620225117 
-0.0033004345611 0.00031640001787 -0.003184387169 0.00085233156356 -0.00049115312589 -2.5675813746e-05 -0.0035253307255 -0.00074502074158 0.0056791421338 
-0.000621246042 -0.0050268826732 -0.013422377706 0.00037219135999 -0.0027390634583 -0.0010208014058 -0.0020652885049 -0.0010679627034 0.0011155320577 
8.4798592555e-05 -0.00097338301742 0.0012475832594 -0.017626960514 -0.013004449545 -0.0034989665564 -0.012590226386 0.0016225719597 -0.0025987902886 
-0.0024674541671 0.0017627522834 0.0037462755913 0.085866705449 -0.19836974048 0.27523860612 -0.0015198869146 -0.0020432147061 0.00026242034216 
0.0099913501703 -0.010230980316 -0.019074384788 -7.7380934543e-05 0.00021657440099 -0.00059475332028 -0.00036690158534 0.0009043730027 0.00064280135262 
0.00013903082162 -0.00019884300507 -5.4282587474e-05 0.00024754451456 -0.0010485024165 0.00019219413982 -0.00040870661827 0.00089434565483 0.00080685936301 
0.00049170289178 -5.0517391104e-05 -0.00015706276747 0.0010273020934 0.00026916547082 4.2769817793e-05 -0.00022172132597 -8.4190017787e-05 0.00059061714058 
-7.8848679776e-05 -0.00046392806089 -0.0010476359853 -1.7251001854e-05 -0.00088214929632 -0.00073998729775 0.00016259831214 0.00027214184616 -5.6921824024e-05 
0.0018726526301 0.0008759025591 0.00051067447095 -5.134866742e-05 -0.0011771219913 -0.00021982517689 -0.00067165200181 -0.0015275962074 0.00081552884164 
0.00015414176674 -0.00038071800544 -0.0002422578237 -0.0016740773003 -0.0020068164764 -0.00011489839904 0.00050701702963 -0.00093803079396 -0.00057620018427 
0.0013810301897 -0.0013197364134 -9.5669981808e-05 0.0010854630091 -0.0004198982548 -0.00020072542982 0.00024341251008 -0.00072973470017 -3.8067070867e-05 
-0.00064740560787 0.0011008371245 0.00026881232571 0.00041697808059 -0.0012928403569 0.00029369988107 -0.0016564853202 -0.0017840465785 -7.403280019e-05 
-0.00012684975776 -0.00025531375625 0.0008368943074 0.00019133807036 -0.00044702358467 -0.00064761238918 0.00016249323619 -0.001758508516 0.00017611486937 
-9.7898483437e-05 -0.0010903484271 1.8106534896e-05 0.00058280465401 -0.00096126914478 2.863365655e-06 0.00077750076745 -0.0014779222372 0.00037211995141 
0.00075605198992 -0.0013151299088 -4.5552131371e-05 0.00073632479572 -0.00081111801713 -9.400635235e-05 0.0008448044166 -0.001439839608 -0.00020434155553 
-0.0020936903574 -0.0039824569607 0.0017206318123 5.0223994361e-05 -0.0022796056275 0.00043206062834 0.00023729291658 -0.0010122927465 8.5849629519e-05 
-6.7533100286e-05 -0.0010348924631 0.00067172679358 -0.00084941426837 -0.00069028204579 8.1867208896e-05 0.00030330906272 -0.0009982664012 -0.00016104403581 
0.0004039528431 -0.0012174420908 0.00045080226435 -0.000284884115 -0.0011482091192 -0.00051480481319 0.00018614935036 -0.0013340769109 6.6494274613e-05 
-0.0010928764857 -0.0014345545977 -0.00048699462926 -0.00019878058626 -0.0021237134326 0.00082647428263 -0.00028020562854 -0.0018591331376 -0.00064554129844 
0.00063443574222 -0.0010771601877 0.00019472017481 -0.00038262830141 -0.00055073749496 0.00021458719959 -0.00016823119262 -0.0008682554926 0.00017367984163 
0.00048394541627 -0.0012782760476 0.00027047416262 -0.00026937681416 -0.0010250355008 0.00010990945306 -0.00036617177583 -0.00011229459625 -0.00037869227349 
0.0008554530524 -0.00074443953759 7.8701456548e-05 -0.00019406029375 -0.0009671982996 -0.00047098026086 -0.00017085614043 -0.002008128535 0.00013787412795 
-5.1693805623e-06 -0.001096868926 8.1786597832e-05 0.00057885030089 -0.00030100656671 0.00068509690691 0.00047440885907 -0.0013614143436 -0.00012864933333 
-0.00089817175525 -0.0010711277046 -0.00030597445683 0.00064961073187 -0.0005921670073 9.2916693218e-05 -8.3263323958e-05 -0.00053454898922 0.00014914090078 
-0.0011084791257 0.0001776626872 0.00018491535618 -0.0005127384169 -0.00049789839352 -0.0010547638757 -0.00084318058656 -0.00049736728879 -0.00018688839449 
0.00067839120526 -0.0011873452055 -6.8378652673e-05 0.00048448581465 -0.00087818301874 -0.00012328513859 -0.00059573969796 0.00013304016203 -0.00038797901828 
-0.00019177653563 -0.00013822843151 0.0011137342669 0.00043949912793 -0.00092939922683 -0.00024175475785 -5.1640074949e-05 -0.00042544894686 -0.00047247742845 
-0.0012468156615 -0.00033313028231 0.00014789266677 0.0012339235516 0.00090654343065 -0.001746909845 -0.0073501687678 -0.00010107619696 0.00017512559255 
-0.023245718157 -0.0063884445296 2.4049728105e-05 -0.0038170396054 -0.0035905320644 -0.0018636976161 -0.00037495776162 -0.00049804434485 -0.00045258244034 
-0.0060173045174 0.001049335812 -0.00032156972841 0.0011864879663 6.9129459138e-06 0.00042912287105 -0.0010315118477 -0.00021427313995 -0.00025606713666 
0.00097537846833 -0.0016867532489 3.1891066936e-05 -0.0057435276766 -0.0019321642999 -1.7879423628e-05 0.10102772547 -0.060608124202 -0.040724575858 
-0.0057040172015 0.0012725068854 0.0001612597411 -0.0011580672573 3.8589879269e-05 0.0018248064781 0.0011656007172 0.00033687340576 3.483918018e-05 
0.00038804209156 0.00025480292305 0.00020537072533 -0.00084452133638 6.8549907922e-06 -0.0002240460318 -0.00027850660486 0.0008420239786 0.0014086309394 
-0.00015990001437 -0.00071294626187 0.0010416468257 0.00022514396842 -0.00058511919235 -6.2235653494e-05 0.00076367622093 0.00034712401131 0.00061708164359 
-0.00043030968081 7.8553781288e-05 0.0013591704207 0.00036362681203 0.00018954827276 -0.00021813222365 0.00089811668672 0.0014015396641 -0.0015275710564 
-0.0014389001298 -0.00086579446356 -0.00035491852577 -0.00042855079476 -0.0008358731073 -0.00030014182276 0.00040791506574 -0.00019726809348 -3.005729125e-05 
5.6814893991e-05 -0.00037727733152 -0.0013766585692 -5.0814321856e-05 -0.00067816395749 -0.00039102386641 0.00041805263268 -0.00063611546585 0.00013501488772 
-0.00066534563245 0.00047806142194 -1.2465607341e-05 0.00066638620682 -0.00018807929112 -0.0011355636293 -0.00058768075415 0.0007481226414 0.00058119361863 
0.0005545778385 -0.00097608319066 -0.00056597504515 0.00037620738506 -0.00059474487013 1.5806427272e-05 -5.4233141192e-06 0.00017789567756 0.0011849746877 
-0.00028700553056 -0.00053989859143 -0.00035606557485 0.00023578692939 -0.00052586454929 3.089032759e-05 0.00020111960183 -0.00054126066467 0.00012733244798 
-0.00023451795635 0.00062301473775 -2.8668634418e-05 0.00022294673946 -0.00037061587974 0.0013237964973 -0.00090286275387 3.2254992947e-05 -0.00036237189393 
-0.00064479479332 -0.0012755006025 0.00038544857819 0.00096169470577 -0.0004890344673 0.00060343564813 0.0015035493179 -0.00081023682755 0.0012025836133 
0.00068406413099 -0.00075630548702 1.7682376293e-06 0.00057655239997 -0.00017111864899 9.8760686985e-05 -0.00048691215345 -0.00093227425763 -0.00019288623429 
0.00061956679088 -0.00013384828547 -0.0006591988025 5.5329263398e-05 -0.0004589497045 6.3311532328e-08 -0.0002496177462 -0.0019977230009 8.3832141319e-05 
-0.00058026809854 -0.001645920315 -3.9606105044e-05 0.00063565200753 -0.0011665677974 0.00042350567097 0.00027836304061 -0.00020167036892 0.00069527343588 
0.00041209561016 -0.00098659368626 8.2463926062e-06 0.001026202209 0.00025338901402 -0.0014703388565 -0.0093185024555 -0.0035325228794 -3.0846999276e-07 
-0.00033425248439 -0.0011693154431 -0.00083494075803 -0.00011645125474 -0.0014122023852 0.00083527929223 -0.00079958883127 -0.0012446501188 0.00012030315019 
-0.00090388528739 -0.0024144107315 0.00019534483227 0.0002298497082 -0.0011195286687 0.00043779502454 -0.00013285358779 -0.00092314510399 4.8977802433e-05 
0.00012532265093 -0.0013640120737 -0.00019818499012 0.00040851847455 -0.0014543143812 0.00056909363754 0.00058113479077 -0.00066469482584 0.0011729192918 
-0.00039916341908 -0.00084333588355 6.2101401662e-06 -0.0002663040769 -0.00095247738867 2.1504698767e-05 0.00036994469357 -0.0012754392902 -4.9540313871e-05 
-0.00016758729433 -0.0010436253384 -0.00032428114097 -0.00024605333216 -0.00085791391681 -8.3398950207e-05 -0.00068903238751 -0.00090713312418 -0.00013489034737 
-0.00086422395411 -0.0010989356287 -0.00010465988772 -0.0010929382432 -0.0018047354977 0.0010407427484 -0.00077370551878 -0.00035151039362 0.00024458581357 
-0.0015732698446 -0.00038447936625 0.00067214989268 0.00067782721161 -0.00056289225847 -2.7546274642e-05 -0.0005630681426 -0.00061037141 8.8571028587e-05 
-1.0228315463e-05 -0.00039241018851 8.2809566518e-05 -0.0092764342585 -0.015028884805 0.011056845652 0.00058858984225 -0.00087203339459 -0.00016584210725 
-0.00013019715954 0.00037299894325 3.3579726183e-05 -0.00098896608273 -0.00030318817628 -0.00061950607235 0.0008468043531 -0.0016466375544 -0.00027605594107 
5.496595214e-06 -0.00034738015012 -4.8767944595e-05 -0.00027521618402 -0.0011408416627 -3.6916698928e-05 -0.00083425182403 -0.0017406718764 0.00065292023493 
-0.00086329416921 -0.00054277304797 0.00027338865995 -0.0078679595038 -0.0052220485399 -2.0880366905e-05 -0.01112186382 -0.0064965004545 0.012051945307 
-0.0064178317175 -0.0029676731414 -0.0023238456059 0.0011009358242 7.726952599e-05 0.000172829983 -0.0004299629559 -0.00082102566444 -0.00011198655505 
-0.0013277705289 -0.0024340462855 5.3600372311e-05 0.00030955322393 -0.001218910414 -0.0003034719011 0.0135657905 -0.0021723228421 -0.014099726772 
-0.00074197358157 -0.001456993358 0.00032935036564 -0.0044170762798 0.001182247914 -0.0043631560362 -0.00089273030466 -0.0033286310958 7.9566933664e-05 
0.11066149963 -0.089277018829 -0.074154607294 0.069939157912 -0.19763207932 -0.077189177032 -0.0021942148015 -0.0012566727737 0.00038808251201 