# vtk DataFile Version 4.1
vtk output
ASCII
DATASET UNSTRUCTURED_GRID
POINTS 1274 float
0.51323 0.553265 0.0379545 0.46967 0.650818 0.105186 0.488214 0.597179 0.268458 
0.494909 0.587187 0.0986458 0.423817 0.755604 0.0323155 0.424511 0.768315 0.119805 
0.475695 0.637108 0.212958 0.459538 0.669721 0.268649 0.39419 0.844473 0.0588429 
0.398494 0.812539 0.165004 0.446135 0.698793 0.214753 0.432987 0.738375 0.265757 
0.363084 0.902191 0.0319697 0.343934 0.967766 0.0522065 0.381411 0.878203 0.146394 
0.395027 0.843859 0.231729 0.345571 0.957006 0.259948 0.31423 1.03856 0.0387204 
0.390844 0.913358 0.0865413 0.448094 0.898786 0.11008 0.332424 0.99574 0.130051 
0.408921 0.914693 0.218465 0.31046 1.03763 0.265121 0.352111 0.929244 0.187711 
0.281813 1.10136 0.0487338 0.328151 0.987387 0.200781 0.286645 1.10814 0.260298 
0.257949 1.16197 0.0336643 0.357368 1.11521 0.103646 0.301984 1.06866 0.109287 
0.289811 1.2512 0.0382189 0.303001 1.04505 0.200284 0.283698 1.10017 0.172321 
0.333391 1.25497 0.0924452 0.385307 1.15725 0.0377238 0.275709 1.14808 0.110204 
0.421784 1.14944 0.106324 0.260842 1.15018 0.208466 0.340108 1.10659 0.211254 
0.218719 1.25606 0.0332147 0.320261 1.18542 0.0541101 0.319668 1.15642 0.173642 
0.24488 1.1987 0.164474 0.287415 1.18286 0.26484 0.239218 1.22177 0.0935114 
0.37236 1.23101 0.0356631 0.236591 1.23012 0.236353 0.215863 1.25631 0.149469 
0.540824 0.470363 0.0302078 0.61161 0.295465 0.0941381 0.595615 0.358533 0.121964 
0.596963 0.347498 0.198189 0.5762 0.388618 0.266499 0.610388 0.313687 0.262184 
0.540921 0.46947 0.209718 0.508887 0.557408 0.218571 0.603483 0.328684 0.0358989 
0.566599 0.417698 0.159184 0.484069 0.62389 0.0378754 0.608724 0.474509 0.0466099 
0.546062 0.474789 0.0985069 0.549646 0.447952 0.268477 0.565226 0.571372 0.262772 
0.527538 0.51216 0.15959 0.550918 0.668382 0.0308593 0.445456 0.711307 0.0788322 
0.51757 0.697623 0.106474 0.471802 0.753081 0.178285 0.551416 0.5479 0.101826 
0.523088 0.657944 0.266702 0.446376 0.696871 0.145746 0.415127 0.777143 0.214473 
0.501049 0.680489 0.169746 0.554794 0.577093 0.168195 0.494248 0.779753 0.0922296 
0.535751 0.760185 0.146359 0.459232 0.814313 0.0363743 0.508444 0.724074 0.0397543 
0.484583 0.817545 0.150791 0.437182 0.835527 0.112971 0.364761 0.893652 0.269731 
0.499476 0.769169 0.260789 0.538828 0.617157 0.219114 0.563463 0.747415 0.220266 
0.468007 0.815297 0.213639 0.507047 0.705392 0.226344 0.459973 0.889023 0.0399208 
0.520431 0.853266 0.0354583 0.535909 0.790645 0.0326226 0.454078 0.875399 0.177603 
0.495653 0.849509 0.0951263 0.464378 0.86978 0.260663 0.438671 0.803285 0.269008 
0.417327 0.951624 0.0373634 0.37356 1.08909 0.0325886 0.466121 1.00428 0.0331273 
0.400815 0.996352 0.0951382 0.416081 0.947743 0.150997 0.468734 0.964144 0.0914398 
0.485393 0.940473 0.26282 0.419697 0.972194 0.26148 0.535189 0.982665 0.2689 
0.460728 0.951074 0.203335 0.383908 1.0238 0.0323967 0.365566 1.05402 0.0848146 
0.463322 1.032 0.0901933 0.362891 1.06269 0.158334 0.395642 1.00437 0.196822 
0.441787 1.0508 0.264237 0.377226 1.02881 0.267487 0.483246 1.00293 0.23665 
0.457434 1.1356 0.038542 0.47055 1.08287 0.123107 0.427524 1.04167 0.139163 
0.360869 1.09 0.269156 0.526933 1.17815 0.175705 0.489901 1.10175 0.267805 
0.407766 1.08797 0.213391 0.429887 1.1333 0.264219 0.445486 1.11995 0.166961 
0.358778 1.16011 0.260112 0.511205 1.18681 0.0383104 0.498791 1.14651 0.120236 
0.43733 1.20539 0.0341932 0.370006 1.20122 0.100945 0.381278 1.13303 0.165884 
0.338879 1.2365 0.260951 0.453338 1.16722 0.207827 0.402735 1.20621 0.221817 
0.469377 1.19065 0.266121 0.487562 1.25476 0.0362705 0.312781 1.21207 0.13733 
0.460583 1.24873 0.22563 0.300364 1.21253 0.203952 0.474997 1.21139 0.169865 
0.373521 1.2277 0.163704 0.639437 0.231883 0.179764 0.563979 0.413143 0.0316757 
0.660082 0.192828 0.0572183 0.660571 0.287856 0.213346 0.640262 0.240902 0.263508 
0.668844 0.174691 0.207399 0.642482 0.224031 0.115768 0.631211 0.40484 0.0363427 
0.592015 0.422427 0.0893339 0.527124 0.509592 0.265846 0.605991 0.486205 0.263111 
0.617297 0.291307 0.158955 0.639558 0.37727 0.246486 0.613968 0.459829 0.13596 
0.588376 0.546197 0.0375218 0.660619 0.42283 0.101219 0.534483 0.635685 0.131378 
0.605322 0.52824 0.146911 0.576396 0.523812 0.211929 0.592845 0.433049 0.220393 
0.613428 0.623299 0.266297 0.603821 0.717178 0.0390314 0.555314 0.609486 0.0645552 
0.570031 0.733059 0.0989748 0.566685 0.69713 0.15804 0.600053 0.70928 0.268229 
0.592173 0.633737 0.175088 0.64505 0.639189 0.211429 0.571724 0.671614 0.224467 
0.597497 0.757718 0.160008 0.587278 0.666198 0.0956471 0.639249 0.786744 0.0390311 
0.561974 0.795337 0.0909642 0.541065 0.813307 0.18998 0.545505 0.831368 0.261832 
0.616514 0.773676 0.265252 0.515456 0.87231 0.21133 0.625621 0.707939 0.201502 
0.600514 0.820037 0.221416 0.585076 0.836658 0.0347557 0.561071 0.858775 0.0930229 
0.565941 0.908443 0.0397011 0.504027 0.942739 0.0315441 0.552239 0.908793 0.260437 
0.598573 0.966284 0.265548 0.528671 0.862046 0.146399 0.506113 0.92215 0.171219 
0.535857 1.00205 0.051369 0.522951 0.914839 0.105034 0.473122 1.05825 0.19039 
0.469141 0.994888 0.155252 0.537779 0.987988 0.137535 0.518352 1.04562 0.269178 
0.570594 0.943893 0.192194 0.436593 1.06541 0.03478 0.538694 1.12339 0.03357 
0.573278 1.06357 0.0351738 0.504188 1.06343 0.0328709 0.552273 1.1069 0.0955251 
0.52286 1.04938 0.104285 0.542576 1.00764 0.209046 0.503162 1.12455 0.204803 
0.538992 1.23311 0.0892285 0.574588 1.21068 0.0322881 0.5642 1.17569 0.122849 
0.522838 1.08952 0.153167 0.605124 1.08624 0.268672 0.540458 1.23686 0.1593 
0.534135 1.21087 0.23767 0.567249 1.12861 0.179765 0.556989 1.07212 0.214804 
0.553664 1.13555 0.259467 0.640241 1.2063 0.042631 0.622425 1.20853 0.110023 
0.465292 1.21376 0.10084 0.647719 1.23467 0.221436 0.595705 1.19733 0.186282 
0.773186 1.16616 0.205767 0.678942 0.130987 0.0400313 0.693183 0.119811 0.114167 
0.721562 0.0322023 0.193198 0.682141 0.133952 0.265509 0.697692 0.0948716 0.182958 
0.636854 0.261976 0.0387336 0.696529 0.315235 0.0396599 0.701948 0.225495 0.150792 
0.704613 0.265897 0.267352 0.640152 0.405488 0.173668 0.695475 0.199629 0.267449 
0.678928 0.326661 0.266702 0.663307 0.336132 0.138053 0.678791 0.457522 0.040937 
0.656479 0.493925 0.0968262 0.651406 0.354981 0.0775384 0.685404 0.466376 0.157486 
0.6503 0.460292 0.216864 0.682176 0.278509 0.104478 0.729573 0.411879 0.197938 
0.690954 0.353761 0.201494 0.611941 0.643526 0.0351634 0.660626 0.524536 0.034937 
0.635736 0.558107 0.0893085 0.59568 0.600127 0.119848 0.648347 0.605698 0.156766 
0.664124 0.682666 0.262131 0.639142 0.544935 0.269081 0.687562 0.581309 0.207369 
0.617493 0.577672 0.209372 0.674053 0.545705 0.150213 0.678476 0.515092 0.20641 
0.629836 0.713999 0.122748 0.658404 0.652748 0.0926174 0.697733 0.572144 0.0976629 
0.709274 0.625879 0.14057 0.717019 0.646542 0.206472 0.661992 0.821454 0.2687 
0.665813 0.670904 0.160335 0.624412 0.80152 0.117159 0.648084 0.87495 0.0391016 
0.689599 0.760015 0.0793512 0.708147 0.700644 0.086078 0.680977 0.762067 0.148957 
0.637852 0.774113 0.203154 0.697106 0.715163 0.205138 0.614048 0.866164 0.265677 
0.582447 0.870865 0.183044 0.614958 0.967715 0.0372509 0.668523 0.983373 0.0765563 
0.631233 0.867552 0.106432 0.644285 0.925816 0.0882367 0.587149 0.90642 0.124982 
0.610121 0.965826 0.138885 0.635284 0.983165 0.209847 0.678244 0.847482 0.147873 
0.635558 0.920958 0.233664 0.643488 0.862559 0.207355 0.632426 0.914777 0.169058 
0.631051 1.10686 0.0300621 0.642201 1.03823 0.0393149 0.694704 1.09063 0.0358782 
0.575017 0.955332 0.0905751 0.595133 1.01946 0.0955238 0.667703 1.04132 0.115403 
0.578416 1.0294 0.260381 0.614151 1.02372 0.161912 0.67251 1.02968 0.183708 
0.616497 1.08841 0.0907713 0.623012 1.142 0.13818 0.697157 1.16354 0.0370852 
0.595457 1.15258 0.0645991 0.582101 1.07573 0.145993 0.62417 1.0547 0.217018 
0.74178 1.13038 0.0834516 0.636608 1.13157 0.223617 0.661247 1.09084 0.167677 
0.603609 1.19391 0.263611 0.749753 1.21057 0.033559 0.791953 1.17976 0.101471 
0.690322 1.16833 0.106139 0.673373 1.19684 0.168588 0.677326 1.18606 0.261166 
0.721619 0.0828917 0.0341653 0.753457 0.121133 0.077012 0.71801 0.0494526 0.119671 
0.784006 0.0579637 0.126872 0.72359 0.0411403 0.26231 0.73568 0.105033 0.243635 
0.707659 0.24148 0.0350599 0.750192 0.180767 0.0391969 0.768199 0.266052 0.0304548 
0.73608 0.17868 0.110604 0.72719 0.156276 0.172455 0.756162 0.166703 0.263424 
0.773777 0.229517 0.154799 0.769831 0.241897 0.262858 0.731925 0.209132 0.212731 
0.703419 0.390919 0.0363946 0.765991 0.327865 0.0314013 0.721211 0.333231 0.103393 
0.747503 0.251209 0.0925711 0.733759 0.417652 0.092505 0.764918 0.373257 0.127952 
0.704146 0.387536 0.141403 0.748359 0.319318 0.263009 0.733376 0.281024 0.197327 
0.697097 0.420628 0.260496 0.725485 0.51179 0.0882126 0.751071 0.463314 0.0378092 
0.796161 0.483076 0.0866033 0.755081 0.468233 0.136266 0.790816 0.418631 0.171046 
0.675795 0.492177 0.266651 0.804401 0.511742 0.264177 0.77297 0.398878 0.260576 
0.741595 0.480624 0.245723 0.71823 0.54741 0.263651 0.67037 0.597832 0.0391188 
0.693343 0.664214 0.0315324 0.73801 0.531686 0.176418 0.761789 0.579762 0.122349 
0.678865 0.612656 0.267401 0.753303 0.584899 0.216415 0.743442 0.620936 0.267492 
0.67349 0.723904 0.0313774 0.747621 0.746995 0.111969 0.757737 0.690699 0.0386351 
0.728251 0.754231 0.0312104 0.747669 0.654401 0.0972276 0.740311 0.691971 0.26113 
0.688892 0.815 0.208756 0.727624 0.690743 0.147402 0.751943 0.743951 0.178828 
0.692034 0.744597 0.269539 0.702149 0.932663 0.0399823 0.717803 0.851423 0.0346088 
0.68179 0.823139 0.0843593 0.694397 0.886404 0.0951143 0.740423 0.808776 0.159374 
0.738797 0.836098 0.260085 0.730682 0.770373 0.2306 0.681187 0.884282 0.265522 
0.712531 0.876257 0.207943 0.688097 0.949413 0.268913 0.717865 1.01849 0.0398209 
0.725946 1.0672 0.0893233 0.728558 0.950081 0.107475 0.68951 0.944806 0.205826 
0.672119 0.974657 0.13894 0.692613 0.916739 0.150024 0.731192 1.00753 0.154811 
[...]
POINT_DATA 1274
FIELD FieldData 10
VELOCITY 3 1274 double
0.00048117867957 -0.0012437074532 7.9767946638e-05 0.00029668236577 -0.00066909208684 -0.00024216529362 0.00059392945516 -0.0014390187427 4.6747756094e-07 
0.00048163821744 -0.00020881262327 -0.0015431530152 0.00061585997993 -0.001005286338 1.8475421545e-05 0.00040753672872 -0.0007153113996 0.00054092093048 
0.0001207208968 -0.0006293646149 -0.00032705533611 -7.8701098815e-05 -0.0005458093066 -2.3113794289e-05 0.00050890959116 -0.0012157803997 -0.0002826723727 
-3.0501782469e-05 -0.00067782385001 0.00050811951283 0.0004670173223 -0.0006454513732 0.00060421783889 0.00046467550427 -0.0011197927262 -2.6896917732e-05 
0.00032384603522 -0.00082378904709 -3.5986405412e-07 0.00049252998464 -0.001277573026 0.0005183756553 0.00041059399779 -0.00075406850874 -0.0001227653389 
0.00035683516187 -0.00095915395533 -0.00018882309018 0.00042234476451 -0.0010492929004 3.1799402127e-05 0.00059023652488 -0.0013814353471 9.1517447601e-07 
0.00054415245167 -0.00087724406425 -0.00010666568866 0.00067848259765 -0.00076990271587 -0.00016801708177 0.0004656858706 -0.0011392088565 1.935336422e-05 
0.00026938192393 -0.00090209005857 0.00016684786576 0.00021956079823 -0.00054221973933 -0.0001803051804 0.00026775896048 -0.00078705381589 -5.3078009611e-06 
0.00058582568744 -0.0014323760087 0.00034425369912 0.00039259779514 -0.00078065813377 0.00018511764364 0.00021284911749 -0.00055688559937 2.6095199248e-05 
0.00055732895247 -0.0013434983889 1.0773362703e-05 0.00057331016065 -0.0011463154559 -0.00056927372072 0.00033092017941 -0.00082347172348 -0.0005728618646 
7.3865380593e-05 -0.001507304601 1.5763439967e-05 0.00028746779606 -0.00083520806027 -5.2983981186e-05 0.00035735354413 -0.00086435872111 -0.00015905796876 
0.0005386648028 -0.0012724948733 -0.00040789513655 0.00087774576143 -0.0011934735232 0.00037527810964 0.00034325283147 -0.00080465399964 -8.4579400811e-05 
0.00053161053299 -0.0011044555651 -6.6199409314e-05 0.00035759444689 -0.00080650039194 -0.00026054547234 9.7596794978e-05 -0.00095410007153 -7.8721237297e-05 
0.00015966508933 -0.00041120817814 -1.3975800712e-05 0.00062865160116 -0.0013535030621 -0.00034386454184 0.00026967836499 -0.0007914252466 -3.3445375333e-05 
0.00029552357557 -0.00077309009639 -0.00019788091383 -2.382388449e-05 -0.00054922516002 -1.1252322516e-05 0.00035640920293 -0.0008510694703 -0.00036376996508 
0.00071751716958 -0.0013474901121 1.8258589885e-05 0.00015672635582 -0.00038357756002 -9.7022730129e-05 0.00033429134565 -0.00080575795605 -0.00039970595102 
-0.00023013561087 0.0010074439102 8.7476069524e-06 -0.00120741968 -0.00011847347764 -0.00083056633535 4.9647837634e-05 -0.00033775379567 0.00079082065249 
0.00027739275684 -0.00062039394627 0.00065839149343 0.00014099893894 -0.002022279055 -0.001055358264 0.00042186433303 -0.0011619589313 0.00041362828491 
0.00030157285015 -0.00063329548799 4.2050995002e-05 0.00049530649019 -0.00092809339318 -0.00038564952595 0.00010856807491 -0.00018856619515 -4.4539463624e-05 
-1.7114862966e-05 0.0005596851733 -0.00038774323286 -0.00012075478924 -0.00019859269466 -1.6012809132e-05 -0.0014414293008 -0.0014534660941 -0.0015612142098 
-9.2716599505e-06 -0.00026580820724 -8.835365446e-05 0.0010314843157 -0.00030442144489 0.0001491032353 0.0003166841003 -0.00073833486057 -5.0169323714e-05 
0.00010015131825 -0.0005601701599 0.00016888422808 -0.00013282741233 -0.0012679767298 0.00045473321797 4.5452339094e-05 -4.6301909398e-05 0.00041390821644 
2.5049683622e-05 -0.00050523869042 0.00043258127101 0.00032217716055 -0.00080197697658 -0.00041420468203 0.00013652133531 -0.00027589711077 0.0011833531156 
-0.00057468026619 -0.00091423786574 0.00022265312708 0.00038094270929 -0.00078215142938 -0.00036483376104 0.00048383080307 -0.0011229138507 1.2693112559e-05 
-1.1605970782e-05 -0.00072043828142 -0.00024086234574 0.00028013122008 -0.00075042238605 -0.0004128962351 0.00022980696979 -0.00090311878118 -5.795722079e-05 
0.00084383113286 -0.0013993045527 0.00078851746209 0.00067358722924 -0.0010177280524 7.5087985606e-06 0.00042502395555 -0.00119419292 0.00025629472419 
0.00050885220928 -0.00094881154066 0.00012726878608 0.00035602911974 -0.00070377673835 -0.0004908302318 0.00047822595894 -0.0010592785027 6.6233574944e-06 
7.9757216192e-05 -0.00061329385242 -0.00034616733815 0.00059451535437 -0.001208661941 0.00050306159142 0.00047706541233 -0.0014655301585 0.00034611351702 
0.0001409011007 -0.00071051892196 -7.1452033747e-05 0.00058384848412 -0.0014113752952 -0.0011197788543 -2.9223873914e-06 -0.0010301958811 -0.00037413894848 
-2.0636090914e-05 -0.0014364662642 0.00098575390657 0.0005746759911 -0.001341730223 -0.00058942624183 -8.7012294889e-05 -0.0010081933077 -0.00022773799939 
0.000897776051 -0.0012202907358 -8.8564059507e-05 -0.000705248127 -0.0009109770098 7.015236378e-05 0.00025489642861 -0.0010268726543 4.5099592489e-05 
0.00084844749935 -0.00056779877109 9.7691100409e-05 0.00020383973581 -0.0010519712861 1.50002924e-05 0.00055853718665 -0.00090969018649 4.7915685757e-05 
0.00038320443949 -0.0011421959463 0.0003182179976 0.00069071055809 -0.00084626754106 0.00049976324073 0.00089029055418 -0.0005673537535 0.00032050915133 
-6.7905913445e-05 -0.00098875179468 0.00061589034446 0.00035963100642 -0.00071577328609 -0.00016033094378 0.0004430927525 -0.0014152108894 -1.0105577101e-05 
0.00077422132986 -0.0013005554874 0.00028944833481 0.00058380706682 -0.0015224924467 -2.4337099794e-06 0.0002204276418 -0.0012860888921 -0.00018021188476 
-0.00050881038365 -0.0008693310004 -5.1025946983e-05 0.00013581902223 -0.00086220797844 4.9389893887e-05 0.00027683446561 -0.00091049617916 -7.3708201633e-05 
0.00013979651104 -0.0010085131407 -5.8196476533e-05 0.00011126973753 -0.00093133960413 0.00032012018598 0.00043476247346 -0.0011364093651 0.00045780616276 
0.00084146066845 -0.0012676118133 -5.8525062571e-05 2.7389638254e-05 -0.00080850289396 -0.00011902294249 0.00029072933078 -0.00085011314636 0.00021554384725 
-0.00024002718823 -0.0009784108812 -1.6348044042e-05 0.0006077765543 -0.0010373854252 0.00042136755082 0.00059193301285 -0.0012256853117 0.00016740842385 
3.16137383e-05 -0.0010408916668 6.1488788699e-05 0.00064783154669 -0.0012281900505 1.8829475725e-05 0.00015281486211 -0.0011672706879 0.00019190499629 
-0.00021619402234 -0.00098626966749 -3.3072255363e-05 0.0002617682619 -0.00063502060487 -2.8632494711e-05 0.0004871735077 -0.0011350772522 0.00056874017674 
0.00077920750476 -0.0011507816052 -1.3829660244e-05 0.00041047129071 -0.001298124792 -2.7585730358e-05 0.00011577943859 -0.00089784315548 -0.00052201144793 
-9.8524595292e-05 -0.00095794555982 -3.7833540491e-06 0.00018284261976 -0.0012609958951 0.00021181897977 0.00052010138432 -0.0010143763958 0.00075194391688 
0.00035754052826 -0.0010009397446 1.0376130064e-05 0.00026210378386 -0.00065299580398 -2.5409065309e-05 0.00036193782115 -0.0008452016056 -7.4307502566e-05 
0.00059904690626 -0.0010578603696 -0.00011286092445 -2.0533112871e-05 -0.00085485993267 -0.00016282137492 0.00047016697282 -0.0014437457542 0.00010305148171 
0.00049192603574 -0.0021284615971 0.00035159580351 -0.00015658481049 0.00033910557775 0.00051068940376 -0.00018901953566 0.0012286786498 -0.00019328580987 
-4.8623472659e-05 -0.0001354754722 0.00053539531767 -0.00079489247299 -0.00041487081275 -0.00022840996752 -0.00015041298679 0.00051911054457 0.00056417832332 
-5.0955976192e-05 0.00020405569756 0.0001756394605 -7.1433483743e-05 0.00033080560167 5.8532600193e-05 -0.0022652563752 -0.0024886806428 0.0003291891509 
0.00078372382575 7.1411544736e-05 9.1225215076e-05 -8.5756901921e-06 -0.00075957661459 -5.7377032655e-05 0.000499652936 -0.00097275261798 0.00059837949412 
7.041786538e-05 0.00095626419386 -0.00039828239436 0.00059752271927 -0.00015608281704 0.0015026256996 0.00028921609874 -0.00090609055337 0.0005808516442 
0.00057770131033 -0.000680094439 -1.889897924e-05 0.00047528980679 -0.00030088729258 -0.00081442472898 0.00015690892186 -0.00067151578399 3.7220388551e-06 
0.00097750802197 -0.00037575133169 -0.00032198195529 0.00059431909972 -0.00091183096989 0.00011120101611 0.00023828818463 -7.1886848798e-05 0.00056508149536 
-8.0061663433e-05 -0.0005605126699 -6.0976179471e-06 -0.00042614906106 -0.0012478640253 -0.00013360779073 0.000312468859 -0.0010598753412 -0.00048212816199 
0.00053173329289 -0.00083166325942 0.00023681782328 0.0006126860282 -0.001349977517 4.8573343647e-05 0.0001935670584 -0.00096802949216 5.1695433109e-05 
0.0003724441187 -0.00072432243535 0.00071160409959 0.00075857649677 -0.0007335100993 0.00011617119883 -0.00035756487672 -0.00055592048188 -0.00026815679674 
-0.0011175024388 0.00025985370946 -0.00017775890221 0.00036956688302 -0.00060261262919 -0.00045055073556 0.00019565049757 -0.0012381387028 -3.5364888303e-05 
0.00026422398476 -0.0017577383622 0.00013565189953 -0.00060877166813 -0.0005812285448 -6.955554158e-06 0.00049643618807 -0.0010107015958 2.464359724e-06 
7.8667662998e-05 -0.00067135839252 5.3610621714e-05 -0.00032629691219 -0.00089637302683 0.00046809295593 0.00022529688452 -0.00076260437679 0.0002618639795 
0.00030676276048 -0.0011961992819 -0.00011289902036 0.00018929947366 -0.0010786249839 2.1892949397e-05 -4.7509331867e-05 -0.0017590570576 8.3173607807e-05 
-0.00035671826113 -0.001135878864 8.3838277851e-05 8.3083945865e-05 -0.00089249762017 -1.3258609906e-05 0.00021550196356 -0.0010064801841 -1.1953902903e-05 
0.00050863151024 -0.001169927233 0.00013492955609 -7.33077325e-05 -0.0004907419163 0.00032073386452 0.00016900764364 -0.0012493398478 -0.00072766328273 
0.00055812167556 -0.0013551789336 0.00055650437453 0.000390579355 -0.0013231063625 -0.00067099106817 -0.00029112648217 -0.00091145442267 0.00085066453926 
0.00065912822364 -0.0007103193313 0.00014256487419 0.00049698929168 -0.00053055290934 -0.00024887420896 0.00068566891548 -0.0012041038961 5.9900900861e-05 
-6.8921106499e-05 -0.00078396325238 4.3853464209e-05 6.8739537518e-05 -0.001072023836 5.4418976355e-05 0.00032945214854 -0.0006179243149 -2.7747137975e-05 
8.4410224642e-05 -0.0011724270242 -2.7620714615e-05 0.00018905567386 -0.0017382558927 -3.0827018146e-05 0.00027514648093 -0.00092897941135 -8.5561655743e-05 
-0.00016400395236 -0.00084559485852 -0.00049712901137 -0.00021348092036 -0.00078078554899 -0.00053896514821 0.00023459957708 -0.0010571816854 0.00027896620726 
0.00055634126516 -0.0011537562027 0.00023265229941 0.00039178700483 -0.001047111969 6.6597823919e-05 0.0005721632109 -0.0013392347163 -4.338360513e-05 
8.7124310828e-05 -0.0020765516622 0.00046943890259 0.00056035710611 -0.0012707127978 1.8738669134e-05 0.00058152573898 -0.0011308887912 0.00022042364162 
0.00011055070773 -7.7447075911e-06 -6.2979290872e-05 0.00073300698484 -0.001122805137 -0.00025945156878 8.3477482934e-05 -0.00087581268053 -1.4442875968e-05 
0.00067499001604 -0.0011748719821 -1.7243480957e-05 0.00039784109353 -0.0017253590787 -0.00020380095176 0.00062514684964 -0.0014809280482 -0.00010328656097 
0.00053706460064 -0.001086955702 0.00011757857934 0.00066327132268 -0.0011344633232 -2.8459321324e-05 0.00071059638377 -0.0011408651345 -0.0001381641249 
-1.7858999523e-05 -0.0017662326514 -0.00027958652965 -5.4271153216e-05 5.2461999886e-05 -0.00022096811619 -2.2998337013e-05 -0.00018034751983 0.00053005439126 
-1.123208567e-05 3.7815155217e-05 0.00055552491874 -0.0001535276474 0.00011665329317 -0.00011999338249 -6.118272739e-05 0.00028329925051 0.001209433592 
-5.6280819641e-05 -0.00031206682615 7.3648125148e-05 -0.00089898571273 -0.00033401900526 -0.0005296894897 -0.001584261182 0.00013284948499 0.00043876738245 
0.00011369676074 -0.00037688494853 -0.00029175791954 -9.6549171363e-05 -0.00069429846962 -0.00011792516734 1.3405965104e-05 8.5929773537e-05 6.0663939993e-05 
0.0025201508748 -6.8788313973e-05 2.1676340313e-05 -0.00093109684896 -0.00071209808357 0.00062893096388 -0.00088648801315 -0.00072986638519 -0.00070194818212 
-0.0027852924326 -0.0012182618808 -0.00030233415392 0.00059921025929 -0.00089243251136 0.00049449988814 -0.00061116546616 -0.00041346161555 -0.00058717910747 
0.00068130844538 -0.0019060627641 -5.4172563966e-05 0.0020051328861 0.00056824815465 0.00099499820488 0.00052944616763 3.048252258e-05 0.0003146153344 
0.00048713067656 0.00023281133386 0.00021419381064 0.00035541932272 -0.001083141151 -5.4724834344e-05 -0.0016752222462 -0.00080195366103 -0.00025843662411 
0.00011086954021 -0.00025247504445 0.00020446715915 0.00011805074041 0.00040957810673 0.00010211510286 0.00036896412592 -0.0014522688645 -0.00018916109952 
0.00035659364706 -0.00083934888701 2.9806590215e-05 0.00092284788785 -0.0011038859744 -9.1511017121e-06 0.0004088827601 -0.0009595282527 0.00020139749224 
0.00042586278521 -0.00069705514837 0.00033623523632 0.0010320768637 -5.090649945e-05 0.0010122196593 -0.0004680615142 -0.0016131700872 -0.00011812180539 
0.00061264299825 -0.00095056907665 -0.00017147272058 -0.0001245434445 -0.0015133398249 0.00038520418243 0.00031270951485 -0.0020003536397 -0.00046018580061 
0.00015313923619 -0.0010655418087 0.00033708675839 -0.00016149894391 -0.00065450763671 0.00041401969969 0.0011195981191 -0.0019744845296 -0.0002573920183 
0.00017794616509 -0.0010321139096 7.1730322559e-05 0.00048971215073 -0.0011453421937 0.00044061511932 0.00033371561078 -0.001274372679 -2.1724443783e-05 
-0.00036090774736 -0.0019182878578 9.8773968093e-05 -0.00051967416669 -0.0010696315048 0.00018015517403 6.3533308835e-05 -0.00019736729964 -2.313034886e-05 
0.00065740783567 -0.001990814482 0.00029698523238 0.00041579278837 -0.0011257366679 -0.00025712719441 0.0014796659494 -0.0015359523971 2.4606315091e-06 
-0.00018179040754 -0.00084352584499 0.0010631542528 0.00011000375698 -0.0013105211462 -0.00014297249688 -0.00014209690747 -0.0012931067604 6.4071863949e-05 
0.0010937809492 -0.00097887787171 9.3975982416e-05 0.00051231213326 -0.0010226949632 -0.00025126338539 0.0003615067932 -0.0015479900369 -0.00062323965426 
-2.3574216039e-05 -0.00096849577941 6.3390305436e-05 0.00053152363976 -0.001363055127 -2.0994992113e-05 0.00099139790677 -0.0015793943199 -1.243378987e-05 
7.0662325989e-05 -0.0015357713978 -2.5215957828e-07 0.0005831821643 -0.0019558923386 -0.0018319855652 -0.0004753332833 -0.00078248826427 -0.00036369078408 
0.00063587674765 -0.001023529403 1.7474247023e-06 4.8207269231e-05 -0.0012896669095 -0.00047403895377 0.00040994104279 -0.0016248352292 -4.2470663604e-05 
5.6881597971e-05 -0.001000037413 -0.0001220507923 0.00089968970289 -0.0013306679839 0.00013591522628 0.00080374758937 -0.00086454341792 -0.00012353429309 
0.00063819937318 -0.0011511386875 -0.0006090933942 0.00047210728065 -0.0010167398534 0.00020076441608 0.00058625631626 -0.0018368144079 -0.00055793862439 
1.9407065732e-05 -0.0013349556427 -0.00025341289861 0.00075694084607 -0.0013746659788 0.00011507822123 0.00048689487739 -0.0016908432359 5.3511179607e-05 
0.00012255298943 -0.0012599224081 -0.00027706906825 0.00010364526505 -0.0014226015496 -0.00016349771237 0.0010473525275 -0.00092936171548 -4.6019049335e-06 
0.00085159627902 -0.0010066923964 0.00023241098337 0.00078331686894 -0.0012282409588 0.00014757806927 0.00021468814742 -0.0016313313697 0.00019704424594 
2.7377240346e-05 -0.00063147629382 -5.6210871342e-06 0.00044850515253 -0.0016227977535 -2.8463263275e-05 0.0013137171528 -0.0018188696906 0.0011459486989 
0.00073508545191 -0.00088552511628 -1.7389930754e-05 0.0008766826644 -0.0014961318961 0.00030996439015 -7.4417173531e-05 -0.0010111060052 0.00066315918238 
0.00041717662142 0.00036656316916 -8.0099386457e-06 0.00019410773923 -0.00074797309726 0.00061290796542 2.0719482972e-05 7.1891870773e-05 0.0010203990961 
-0.00034425535858 -0.0010289212605 0.0012793654483 0.00014794320421 -0.00024942101171 -0.00057023739339 0.00052134831605 0.00069036567198 0.00065960498304 
0.00023791662629 -0.00018142666261 0.001521962661 -0.00092907814734 -0.00091669605631 -0.00054870849289 0.00020588532814 0.0013231335825 -0.0011052779441 
0.00047198272484 -0.00028256452047 0.0016468749125 -0.00063661722811 0.00029942191947 -0.0009823120304 0.00015593488879 -0.00040353904446 -0.0003138165968 
-0.00034812814417 -0.0005016789678 -0.00035651396876 0.00012942860355 -0.00063528889984 0.00027027256352 9.3759547946e-05 -0.000253316004 -0.00027614899202 
0.00038537472974 -0.00036921893845 0.00036742701145 0.0006599472164 -0.0007568466852 0.00079324380826 0.00068852795055 -6.6883579651e-05 -0.00014923849959 
-4.7091988914e-05 -0.00094258713915 4.4517447798e-05 0.00048652795919 -0.00034451772789 -0.00011933045867 0.00024871473004 2.2615674846e-06 0.00012131783117 
7.2364086422e-05 0.00022326065715 0.00053111036328 0.00034089771614 -0.00055009871979 -0.0003936398251 -0.00020660621263 -0.0001612853202 0.0009608418586 
-8.0150654633e-05 0.00064550535043 -0.00027562977906 -0.0012468643597 -0.0013919921782 0.0011233203718 -0.0010121975713 -0.00058424527175 0.00010894168319 
-0.0015110822753 -0.00030615828277 -0.00044838297051 -0.00014547153704 -0.00087810253278 0.0010664683413 0.0005232262046 -0.00040991922077 0.0002743597073 
0.0012080293826 -0.00025932131321 -1.4230984822e-05 0.00012290112493 -0.00022645071729 9.5160811448e-05 -0.00063453384205 -0.0013185663553 -5.4443358683e-05 
0.00070878471025 -0.00018690712482 -0.00053971991721 -0.00030363766104 -0.00065149226308 -5.2031407675e-06 0.0013471729461 -0.00065341313648 2.1313112674e-05 
-0.00059980398506 -0.00070040792986 0.00030029463638 0.00063495151497 -0.0010803897511 0.00045736374037 0.00032347202547 -0.00032387863076 0.00078719951581 
-0.00013392086398 -0.00052192833774 -4.1632791856e-05 0.00039289338422 -0.00062359991423 -3.0438363483e-05 -0.00019805911382 -0.00083259316136 0.00010069487769 
3.3537960194e-05 -0.0006487624825 -0.00025606794283 -0.00046024121148 -0.001099037584 -4.1871709751e-05 -0.00053882417824 -0.00088005327109 6.6466627314e-05 
0.00040658716151 0.00015947724316 0.0001042189983 -0.00031725583791 -0.00090080136706 7.597625026e-05 0.00066324364938 -0.00052616001063 0.00010767854849 
0.00094318603261 -0.0014438447993 -0.00015037374155 0.00039961099145 -0.0010777971773 0.00038504921072 -1.3861350348e-05 -0.00026168173335 2.3763858947e-05 
-0.027448880097 0.011801750011 -1.5405949298e-05 2.5303526784e-05 -0.00099824906822 1.8353848259e-05 0.0006917451718 -0.0015645337989 -4.4012417503e-05 
-0.00024352404549 -0.0011096210825 -0.0005192820776 0.00059410101056 -0.001568218925 -9.9700240458e-05 0.0004324455602 -0.00069232163976 -0.00081252944453 
0.00030681823831 -0.00031541565104 5.005885814e-05 -0.0086805103129 -0.012550117208 0.0024811545683 -1.0861922365e-05 -0.0016940394689 -1.3195628969e-05 
-0.00070456563194 -0.0009494636554 2.0810252883e-05 0.00029976297509 -0.0021330426547 7.6198452386e-06 5.236902944e-05 -0.0013818350354 -1.9337747886e-06 
0.00047150186487 -0.0010473542598 -0.00053966423014 0.00049137241039 -0.0014363917483 -4.105120921e-05 -3.0048933063e-05 -0.001742468744 -6.0880674702e-05 
-4.9321332599e-05 -0.00086216151518 -0.0004384264412 -0.00040662526109 -0.00095927843271 -0.0003997147986 0.00069601487556 -0.0018009274195 -0.00038410938943 
0.0005713322444 -0.0012130431032 -2.3568319531e-05 0.00021882841396 -0.0022415183214 0.00012376008815 0.0001975651326 -0.0020860812928 4.4703240898e-05 
0.00045022873932 -0.0012713906429 0.00020624377561 0.00058264235155 -0.0013920788701 1.3783867061e-05 -0.00010396681604 -0.0017542091162 -9.2627966893e-05 
0.00066978744958 -0.0018876048562 -7.0629980039e-05 0.00066099529638 -0.00089437334467 -0.00012187069654 -0.00014974362677 -0.0023888749297 -0.00045391566343 
0.00030901785087 -0.0021097526685 -3.3338655754e-06 0.00031689115247 -0.0017061739526 0.00011446130187 0.0004314541846 -0.001492207446 0.00052305099168 
0.00019931494147 -0.0020721534627 0.00014975351959 0.00056216859551 -0.001161343679 0.00021028829487 0.00010910762059 -0.00078085539674 1.0530199518e-05 