# vtk DataFile Version 4.1
vtk output
ASCII
DATASET UNSTRUCTURED_GRID
POINTS 1274 float
0.51183 0.556645 0.0379521 0.468894 0.652785 0.105359 0.49453 0.602917 0.268459 
0.494116 0.589102 0.099611 0.422858 0.757932 0.0323162 0.423839 0.769956 0.118632 
0.475063 0.638636 0.213025 0.459985 0.671884 0.268646 0.392741 0.84799 0.0595979 
0.397785 0.814259 0.163733 0.444989 0.701598 0.215519 0.431651 0.741604 0.26576 
0.361811 0.905284 0.0319697 0.34254 0.971152 0.0510443 0.380584 0.880225 0.146337 
0.39391 0.846566 0.232215 0.344244 0.960228 0.261701 0.312766 1.04213 0.0387195 
0.388549 0.916616 0.0870159 0.446607 0.900703 0.110299 0.331213 0.998669 0.129471 
0.408651 0.917128 0.218432 0.309761 1.03932 0.265122 0.351411 0.93094 0.188139 
0.280322 1.10497 0.0482977 0.327375 0.989273 0.200159 0.285947 1.10983 0.260298 
0.261682 1.16691 0.0336646 0.356062 1.11811 0.107268 0.301107 1.07079 0.109877 
0.284196 1.25583 0.0382188 0.302364 1.047 0.200309 0.282814 1.10232 0.172919 
0.319291 1.26762 0.0973719 0.379491 1.1613 0.0367692 0.274832 1.15021 0.110925 
0.419327 1.15452 0.107787 0.259938 1.15237 0.208981 0.339775 1.10912 0.211635 
0.21393 1.26769 0.0332148 0.320244 1.19537 0.0616963 0.317443 1.15935 0.175653 
0.243954 1.20094 0.165055 0.287965 1.18453 0.264839 0.238355 1.22387 0.094059 
0.360402 1.24869 0.035663 0.235466 1.23286 0.241669 0.214939 1.25856 0.150031 
0.544088 0.469665 0.0302135 0.611184 0.296505 0.0939629 0.594953 0.360155 0.120282 
0.596638 0.348278 0.196366 0.575771 0.38966 0.266498 0.609501 0.315803 0.261158 
0.540068 0.471541 0.210158 0.50815 0.559205 0.219454 0.60316 0.329468 0.0358988 
0.566232 0.418603 0.158868 0.482894 0.626744 0.0381789 0.610244 0.477883 0.0478991 
0.545538 0.476044 0.0985537 0.549216 0.448993 0.268473 0.564653 0.574166 0.262778 
0.526928 0.513643 0.159469 0.549341 0.670157 0.0308512 0.444832 0.712817 0.0778764 
0.517276 0.699113 0.105505 0.470478 0.755374 0.178147 0.550279 0.549231 0.100684 
0.523665 0.660825 0.266698 0.445819 0.698213 0.146721 0.413938 0.780037 0.214175 
0.500706 0.683013 0.171011 0.553566 0.578761 0.168592 0.493697 0.783044 0.0915193 
0.534373 0.762809 0.146185 0.457242 0.81725 0.036373 0.508147 0.726779 0.0397503 
0.48377 0.819764 0.150694 0.435929 0.837408 0.113273 0.363524 0.896655 0.269731 
0.498598 0.771363 0.260791 0.538603 0.619948 0.218919 0.562711 0.749759 0.220398 
0.467894 0.817521 0.213702 0.505807 0.708539 0.22742 0.459789 0.891898 0.0403184 
0.520551 0.856673 0.0357796 0.534624 0.793742 0.0326217 0.454114 0.877889 0.177864 
0.49414 0.852747 0.0956979 0.46679 0.872151 0.260666 0.43833 0.806414 0.269022 
0.415825 0.953563 0.0373639 0.373068 1.09236 0.0325881 0.464449 1.00665 0.0331218 
0.399371 0.999599 0.0941298 0.41397 0.950468 0.149719 0.466689 0.96609 0.0911486 
0.485636 0.943473 0.259999 0.419643 0.974559 0.261481 0.534798 0.985907 0.2689 
0.456829 0.957887 0.20324 0.382324 1.02772 0.0323971 0.365076 1.05809 0.0853366 
0.462773 1.03406 0.0903746 0.362154 1.06496 0.158766 0.395509 1.00671 0.19684 
0.441243 1.05235 0.264237 0.376558 1.03072 0.26737 0.48392 1.00648 0.235165 
0.451673 1.13977 0.0385574 0.469735 1.08536 0.122686 0.426557 1.04377 0.139021 
0.361289 1.09218 0.269156 0.524523 1.18374 0.178507 0.490967 1.10543 0.267885 
0.408028 1.08992 0.213143 0.42998 1.13504 0.264219 0.444591 1.12298 0.166519 
0.359492 1.16231 0.260113 0.496768 1.19868 0.0357083 0.495664 1.15 0.124664 
0.428308 1.2128 0.0364109 0.37769 1.21408 0.0972996 0.381224 1.13942 0.169544 
0.338905 1.2385 0.260952 0.452905 1.17058 0.206898 0.400543 1.20806 0.218338 
0.469181 1.19259 0.266119 0.485182 1.26963 0.0502253 0.308847 1.21641 0.136718 
0.438568 1.25686 0.261319 0.299221 1.21693 0.2038 0.472465 1.21601 0.169269 
0.384496 1.24012 0.159972 0.639622 0.231432 0.178324 0.564718 0.411345 0.0315334 
0.65995 0.193139 0.0550992 0.66127 0.287655 0.212547 0.639751 0.242128 0.263509 
0.66888 0.174604 0.206822 0.642944 0.222918 0.114552 0.632383 0.408312 0.0363335 
0.592878 0.42496 0.089383 0.526679 0.510631 0.265844 0.60406 0.489333 0.262858 
0.617345 0.291178 0.158667 0.638649 0.377981 0.245215 0.61395 0.46122 0.137295 
0.586853 0.548458 0.0375173 0.660661 0.424672 0.102151 0.533407 0.6378 0.132395 
0.603505 0.52962 0.146581 0.57433 0.526684 0.211568 0.591563 0.434389 0.220367 
0.613113 0.625853 0.266302 0.60358 0.720386 0.0390334 0.555095 0.611705 0.0650615 
0.568682 0.73679 0.0981987 0.565736 0.700108 0.156822 0.599757 0.711935 0.268233 
0.589944 0.636222 0.173885 0.642269 0.643648 0.210669 0.572239 0.673953 0.22423 
0.596119 0.760864 0.159939 0.586349 0.667638 0.096303 0.640047 0.789414 0.0390278 
0.56136 0.798943 0.0906178 0.541728 0.815687 0.189821 0.544832 0.833408 0.26183 
0.61564 0.776505 0.265244 0.516436 0.875261 0.209924 0.625023 0.711232 0.200237 
0.600265 0.824195 0.22146 0.584895 0.838386 0.0369046 0.560384 0.863914 0.0935357 
0.564606 0.913037 0.0397027 0.501562 0.947343 0.0315423 0.552038 0.910791 0.260436 
0.597942 0.968621 0.26555 0.527683 0.864482 0.14682 0.504691 0.926494 0.174162 
0.533891 1.00643 0.0512333 0.522131 0.91927 0.108124 0.473621 1.06143 0.188527 
0.468351 0.997542 0.15452 0.53764 0.991209 0.139288 0.518178 1.04869 0.269178 
0.571654 0.947002 0.193119 0.435936 1.06825 0.0347797 0.544466 1.12916 0.0335715 
0.573258 1.06676 0.0351734 0.497463 1.08751 0.0552775 0.552385 1.10946 0.100421 
0.521889 1.05206 0.105432 0.544153 1.01108 0.209572 0.502661 1.1278 0.204618 
0.53763 1.23186 0.0880357 0.577255 1.21357 0.0322882 0.562059 1.17695 0.126121 
0.524118 1.094 0.153539 0.603912 1.08898 0.268672 0.541517 1.24008 0.157644 
0.534214 1.21561 0.240576 0.565688 1.13477 0.180234 0.55686 1.07609 0.212685 
0.554215 1.1398 0.258076 0.645154 1.21759 0.0403767 0.624203 1.21195 0.113569 
0.462668 1.21875 0.10027 0.616624 1.27227 0.193223 0.5971 1.20223 0.18628 
0.732105 1.20676 0.216375 0.679084 0.130627 0.0409908 0.69356 0.118919 0.113306 
0.721559 0.0321981 0.193159 0.681855 0.134634 0.265518 0.697975 0.0941862 0.184306 
0.636454 0.262722 0.0387382 0.694217 0.315757 0.0396691 0.702719 0.225498 0.148981 
0.704026 0.267301 0.267353 0.640414 0.407101 0.175098 0.694636 0.20042 0.267451 
0.678089 0.327949 0.26671 0.662097 0.337329 0.138001 0.680872 0.459984 0.0424557 
0.659164 0.495827 0.0972622 0.652825 0.358974 0.0779973 0.685626 0.46791 0.158661 
0.64821 0.46328 0.21676 0.680336 0.279293 0.104776 0.730717 0.433862 0.199561 
0.690712 0.354051 0.201238 0.610895 0.646651 0.0351639 0.662801 0.526883 0.0349404 
0.634943 0.558659 0.0889561 0.595146 0.600392 0.1202 0.647662 0.609451 0.156631 
0.663712 0.68505 0.262141 0.634018 0.549728 0.269081 0.686106 0.583758 0.207114 
0.616016 0.580031 0.20799 0.671773 0.548843 0.149733 0.676654 0.517589 0.20628 
0.628339 0.717503 0.122162 0.657851 0.657285 0.0908812 0.696737 0.573558 0.0969157 
0.707929 0.629154 0.137628 0.717494 0.648094 0.20707 0.660683 0.824694 0.268704 
0.664624 0.673516 0.159143 0.623823 0.804071 0.11699 0.646757 0.878671 0.039098 
0.690567 0.763933 0.0799366 0.707858 0.704865 0.0840705 0.680031 0.764466 0.149318 
0.636503 0.777498 0.202974 0.696622 0.716736 0.204668 0.613685 0.870394 0.265678 
0.58239 0.874123 0.181839 0.614353 0.971694 0.0372503 0.668554 0.986358 0.0760578 
0.628451 0.87023 0.105916 0.64313 0.928599 0.0891982 0.586727 0.910598 0.126583 
0.610214 0.969272 0.13903 0.633225 0.985927 0.209067 0.675317 0.851424 0.148102 
0.636158 0.924241 0.233793 0.643569 0.867755 0.206384 0.633502 0.91862 0.169121 
0.630865 1.10871 0.0300652 0.642258 1.0419 0.0407239 0.694897 1.09405 0.035877 
0.574067 0.958869 0.091472 0.593311 1.02333 0.0953773 0.66649 1.04358 0.115924 
0.578023 1.0318 0.260179 0.612909 1.02742 0.161602 0.670936 1.03284 0.184398 
0.616356 1.09178 0.0912277 0.622023 1.1446 0.13961 0.695444 1.16702 0.0370818 
0.602971 1.15842 0.0662364 0.583937 1.08188 0.148186 0.623284 1.05712 0.217343 
0.740775 1.13314 0.0822198 0.636658 1.13369 0.223898 0.662375 1.09421 0.167554 
0.604493 1.19778 0.263609 0.74227 1.21994 0.0360703 0.770495 1.19742 0.0984933 
0.684143 1.17105 0.105697 0.674665 1.20284 0.168145 0.678022 1.18876 0.259864 
0.72254 0.0833797 0.0341596 0.754584 0.122088 0.0764249 0.71843 0.0484326 0.116576 
0.784062 0.0587054 0.124733 0.722967 0.0426574 0.262519 0.734603 0.105922 0.241559 
0.707799 0.242419 0.0350583 0.750855 0.182063 0.0391989 0.768665 0.266139 0.0304447 
0.737732 0.177716 0.1107 0.728205 0.157118 0.173079 0.755301 0.167496 0.2631 
0.774144 0.230735 0.156742 0.769692 0.244706 0.262384 0.730393 0.210808 0.212444 
0.703141 0.391236 0.0363958 0.763912 0.32778 0.0325026 0.720605 0.333091 0.1029 
0.746223 0.253173 0.0933409 0.73215 0.419425 0.0924982 0.764588 0.37448 0.126054 
0.703766 0.387185 0.140767 0.747533 0.321023 0.263465 0.734689 0.282935 0.198688 
0.697131 0.419605 0.260498 0.726471 0.514548 0.0852733 0.753197 0.463781 0.0378088 
0.797575 0.486588 0.0859266 0.753941 0.4697 0.133384 0.789194 0.420507 0.169208 
0.673882 0.494909 0.266634 0.803713 0.511396 0.264178 0.774246 0.402788 0.26058 
0.73988 0.481295 0.247659 0.717773 0.548994 0.263651 0.669019 0.600571 0.0391214 
0.695051 0.665824 0.0315343 0.736231 0.534842 0.174675 0.760814 0.582891 0.12094 
0.680008 0.615234 0.2674 0.75225 0.58553 0.217559 0.745529 0.623822 0.267492 
0.673603 0.724943 0.0331979 0.747529 0.750423 0.111044 0.758878 0.693701 0.0384553 
0.728049 0.755768 0.0312133 0.749154 0.657636 0.0969582 0.73985 0.694707 0.261122 
0.687294 0.818689 0.208595 0.726031 0.69419 0.145614 0.750924 0.746022 0.177809 
0.693858 0.745927 0.269539 0.702047 0.935207 0.0399786 0.71648 0.855157 0.0346142 
0.681131 0.826849 0.0848445 0.693906 0.890022 0.0959356 0.739356 0.811289 0.159937 
0.739432 0.840772 0.260084 0.734743 0.778808 0.227719 0.681424 0.88703 0.265525 
0.713746 0.878736 0.206043 0.687196 0.952257 0.268914 0.717877 1.022 0.0398151 
0.724378 1.07031 0.089917 0.732115 0.966199 0.100731 0.689119 0.949976 0.205716 
0.672409 0.97661 0.138272 0.694097 0.919528 0.151322 0.729162 1.01276 0.155454 
[...]
POINT_DATA 1274
FIELD FieldData 10
VELOCITY 3 1274 double
0.00035158190124 -0.00034912318576 -0.00054016459064 0.00055178968619 -0.00033758297617 -0.00069503533801 -0.0014603586634 -0.0011597558203 -2.4310412155e-05 
-0.00012735857615 -0.00054275341482 0.00078145715597 5.2384314537e-05 -0.00065688934628 6.2376426533e-06 0.00045701669629 -0.0014581290225 0.0020691577633 
-0.00033025215994 0.00069084693156 -0.0006419178646 -0.00043078148979 0.0009857542285 -4.0145643415e-05 0.00068613597624 -0.0015086842267 0.0022699628519 
0.00076667536268 -0.0011128220886 0.0012847533673 0.001098813508 -0.0026530481435 -0.0027213789449 0.0010982692531 -0.0024934985654 -3.1429388725e-05 
0.001287282759 -0.0031723042244 0.00018094065316 -2.8862532301e-05 -3.3895747169e-05 0.0018378154298 0.0018282040399 -0.0016165486161 -0.00077572000338 
0.00092897994976 -0.0020202069496 -0.0019025300692 0.0027999309746 -0.0068141687516 -0.033557269465 0.0011540004241 0.00039093411608 0.00013487697896 
0.0018356743378 -0.00085630888914 -0.00012294395851 0.0018256755009 -0.0012797403792 0.0014800657971 0.00052998738003 -0.00052254018297 0.0018561910074 
0.00076048509992 -0.0014286831789 -0.0013034094526 -1.6649990226e-05 -8.0511026358e-05 0.00012554126022 0.00067433532241 -0.0017403268247 -0.0016014241129 
-6.3639309772e-06 0.00059239368653 -0.0041585544207 0.0010793134158 -0.0023710437884 0.0019161398955 -3.0508563989e-05 -0.00021057196067 -0.00011286369041 
-0.092835661203 -0.026337039865 4.4325995165e-06 -0.0072399658859 0.0064770186204 -0.01634659126 0.0010181923761 -0.0023899315766 -0.0027138285023 
0.14253667879 0.046524620124 7.5043090452e-05 -0.00069929259583 -0.0031754542991 -0.00043338100732 0.001364684703 -0.0031889994947 -0.0019674739935 
0.49840272052 -0.27777127587 -0.12227160132 0.049538811285 -0.0051836738645 3.1564026343e-05 0.0008591270487 -0.0023051435627 -0.0015730566335 
0.0063356394057 -0.017222196772 -0.021901659367 0.0011387521301 -0.0027518312692 -0.0027504720408 0.00034516754353 0.001250258742 0.00048938604099 
0.095565700193 -0.2321274061 -8.5610336145e-07 0.0070920819802 -0.049741979543 -0.039623859888 0.038420202164 -0.023122438721 -0.057402547933 
0.00081997921954 -0.0019475432217 -0.001660254967 -0.00081870617106 -0.00016785697249 0.00021911573789 0.0021395463524 -0.0052198898514 -0.017412614586 
0.30595264413 -0.25528157767 3.3776982412e-05 -0.0085243422825 0.020733709806 0.061194651906 0.011226809583 -0.027277043762 -0.11899792948 
-0.010403158879 0.0018512434044 -1.564930742e-05 0.00094585343029 -0.00079662740301 0.00035563551322 6.6214168341e-05 -0.00079526834365 0.00071553131983 
0.00029340025505 -0.00051326116754 0.00050432396101 0.00025311134071 0.00037502500702 0.001419065041 0.00032578059718 -0.00097623778295 0.00050281389849 
0.00010126826687 -0.00052344465406 0.00023941336592 -4.0415193899e-05 0.00021151528073 -0.00035187609014 2.6327726219e-05 -3.036722533e-05 7.421749166e-06 
0.00032229591995 -0.00091769806544 0.00017185687508 0.00022938517302 -0.00050834929621 0.0023809479326 -0.00028689489152 -0.00096004565221 0.00035396261465 
0.00012693671536 -0.00059203851829 0.0002273146022 0.00018200913604 -4.6194176981e-05 -0.00037362873086 -0.00019737513116 -0.0016180482896 6.4861526288e-05 
0.00059406946761 -0.00085539807396 0.00028050589448 0.0014478773072 0.00033032543141 -0.00018062131093 0.00029128187041 4.4502368906e-05 0.000612228929 
0.00025962085339 -0.00091028895444 -0.00045792598065 0.0004880065041 -0.00079802006546 -0.00094327695958 0.00060397401432 -0.00061632105407 -0.0011031160986 
-0.00085024432416 -0.001379890983 -1.3350922417e-05 -9.6569356528e-05 -0.00028454089026 -0.00059529918123 0.00098846006436 -0.0023965869493 0.00027710607908 
-0.00019938677991 -0.00066313525546 -0.0014610026212 -0.00026715383309 -0.00039498361362 -0.00066427579191 -0.00087947568361 -0.001316064542 0.00061591312893 
0.0011695591375 -0.00065972598565 0.00014336312186 0.00047586651328 -0.00050472182599 -6.759962728e-05 0.00024438180111 9.8169760661e-05 -0.0010091338148 
0.0015642264833 -0.0013375680625 0.00091136580969 0.0012218215297 -0.0013325095971 0.0019532898837 0.0012843063548 -0.003019527457 1.8611795537e-05 
0.00050861307232 -0.00094528993784 0.00057284369661 -0.0014169007895 -0.0014963180718 0.00071927043137 0.00020284887089 -0.00075084162064 5.4918235994e-05 
0.0027871439386 -0.002256917796 0.0016016026835 0.00084608039683 -0.0019563860759 -0.0006302923934 -0.0011622129705 -0.00016144921932 0.0008198936916 
-0.0014777907468 -0.00074414112491 -0.00078977292504 -0.0010436515604 -1.0449876775e-05 0.00067687553409 0.0042339062365 -0.00067916103972 0.0017884973146 
0.00074053914276 -0.0010498176584 -0.00016085079898 -0.0011156887155 -0.0015308003045 0.00015500581701 -0.00047936077268 -0.0018997715309 0.00031873826179 
-0.00035573283021 0.0006667035014 -5.0598644362e-05 -0.0074189547061 -0.00010066277378 4.2280593615e-05 0.00060586853956 -0.0023542038939 -0.00024810280375 
0.0011980316439 -0.00046202012011 0.0016099703203 0.00088985176635 -0.0011416280488 0.0014967994278 0.00058117887869 -0.0015089007967 -0.00027675656285 
-0.00060987075755 -0.0020030818567 0.0020394851627 -0.0012729181474 -0.0015433512138 -0.00029170055575 -0.00085651780295 -0.0018042316853 0.00012052892642 
0.0025109907673 -0.0034635107022 8.9642297864e-05 0.0031834408879 -0.0029595656258 -3.0592355259e-05 0.003803247127 0.0012832505498 0.0027573143631 
-0.0020412151154 -0.001317658754 -0.00078783955089 -0.00082782243616 0.0014156788454 0.00020292606854 -0.012365610591 -0.0050705782063 0.0015883819311 
-0.00011926786892 -0.00021919083787 -7.2571658703e-05 5.5667945757e-05 -0.00037625229089 9.0626845933e-05 -0.0019348090663 -0.0021572626649 3.4814289341e-05 
0.055075626212 -0.020954004636 0.0014690641922 -0.0078538205652 0.00061919258828 -0.0011356903209 -0.00080914714246 0.0035246220782 -0.001407869427 
-0.00067189374236 -0.00061846834456 0.00028562616665 0.014734313579 -0.021603780699 -0.0073860880128 -0.0038628299899 -0.0041072511065 -0.00011299243632 
0.0028510301973 -6.8301699725e-05 -0.0021223063174 -0.0020133407847 -2.7254722443e-05 7.4372477783e-05 -0.017078622787 -0.014852605424 -0.010389952123 
-0.0010697775931 -0.00071616277191 -9.1907051085e-05 0.15601497704 -0.098344027796 -0.00024377940663 0.0050093901759 -0.0034142805579 -0.014134359722 
0.15411568581 -0.1048090478 -0.074773529905 0.02813420843 -0.014365032728 -0.091930167097 -0.054259610537 -0.13238957036 -0.1495358062 
-0.0064375451057 -0.002093191633 -6.2769351987e-05 -0.0052069094161 -0.024524189833 -0.0012365632606 -0.026420682081 -0.035217499577 -0.062833246173 
0.0073821607884 -0.0060607192283 -6.5337078106e-05 0.038432115724 -0.19107495263 -0.18443754524 0.13812002827 -0.085842837051 0.031992293012 
0.19773549079 0.079343831209 -0.073730500184 0.009234633229 -0.066962977331 0.013420599056 0.00025505998275 -0.052006005987 -0.031708659784 
0.0048637537396 -0.044773632523 -0.076724614771 -8.1844188663e-05 -0.00028330443425 0.00027227257607 -0.00093966785593 0.0023400901347 6.9281015602e-05 
-0.00025508102509 0.00023871546803 0.00038567703467 0.00032177266056 -0.00067968178189 0.0002074246652 8.2420689456e-05 -5.3398413692e-05 0.00084759629678 
0.00026501705443 0.00010191301383 0.00055381234338 -6.1195722552e-05 -0.00018354730026 0.00038951759952 -0.0013195158276 -0.0013116253116 -0.0003490839547 
-0.0015778338293 -0.00080179435222 -0.0020105917079 3.9178525187e-05 -0.00026806018012 1.446047213e-05 0.0011254487088 -0.0017471234142 -0.00012820960774 
-2.2751636858e-05 0.00032373726887 0.0011551016545 -0.00044908351005 -0.00053959529746 -0.00070970796508 -0.00048029352955 -0.00034259656997 -0.00041767012547 
0.00031448409673 -0.00096827532086 9.1934848497e-05 -0.00078080986252 -0.00011966963502 -0.00035476282862 0.00035496710249 -0.00065685728464 -0.00059030635003 
0.00054504456724 -0.00017749703194 0.0003646465085 0.0012643058592 -0.0012264913066 -0.00061457000128 0.00052530092094 -0.00028266187071 -0.00038478429504 
-0.00038180635515 -0.00092830955244 3.3317128177e-05 0.00054348671843 -0.0014639526718 9.1767635518e-05 -0.00061798996278 0.00050968599137 0.00079936777749 
0.0001571385721 -0.0018089796152 -5.3920441545e-05 0.00054853235626 -0.0014281882252 0.00096845745822 -0.00013009171161 -0.0017633038255 -0.00023003050626 
0.00070819630522 -0.0014908415692 0.00048634351746 -0.00021290657338 -0.0012729021076 0.00018823108651 0.00045341688485 -0.0026806889701 0.00093102460268 
-0.00089012400058 -0.0011094049453 -0.00074008967766 0.00069813018111 -0.0010446335296 -3.5279109233e-05 -0.00073857197796 -0.00086426931871 4.4860778276e-05 
-0.00041818069693 -0.0020287379674 -9.1416043445e-05 0.00055322494926 -0.00063701096976 -3.2391135583e-05 -0.00016320759903 -0.00038977982147 -0.00047402289552 
0.00046181475107 -0.0010850774084 2.78984596e-06 -0.00026093035289 -0.0014640900209 0.00077797030704 -0.00038703628055 -0.002342083548 0.00027499638118 
0.00025099630873 -0.0021401526433 0.00088680091262 -0.00032863361245 -0.00033639330607 -0.00057473242676 0.0020058315159 -0.0014428171502 0.00057489863429 
0.0024061016376 -0.0040139477566 0.000135791723 0.0026742428614 -0.0025839830154 -6.7770109891e-05 0.0001492675213 -0.00062722028055 0.00022197303259 
-0.00048990016233 -0.00015893439747 0.00026357442885 0.00088900751788 -0.00075736196439 -0.00048523387519 0.0046148255509 -0.0012292574085 -0.00050292665051 
7.1131466091e-05 -0.00063370803937 -0.00026613984328 0.0015483285036 -0.00087843135141 -0.0010540596612 0.003336330043 -0.0026096694521 -0.00278778579 
-0.013098468288 -0.00019964726684 -0.00089290489046 -0.013769993914 -0.011184057453 0.00064983904499 -0.0012797898015 -0.002974236876 0.00014153688041 
-5.820150244e-05 -0.001239368698 0.00015015783391 -0.0098604358449 -0.0066609633445 2.8624730352e-05 -0.0069915689757 0.00043949074048 -3.4085891052e-05 
-0.002383193424 0.0024238826263 7.0548350793e-06 0.026731587477 -0.067273147381 -0.052971584751 0.0027259303427 -0.0090709923681 0.0055339237484 
-0.0019767400049 -0.0063153893855 0.0041207620307 0.00029517096832 -0.0023279509008 0.0053186686212 0.010287664939 -0.0067534556376 0.0022529357163 
0.082007445448 0.031504360719 -0.025120880982 0.12016095074 0.035509212096 0.00027533386036 -0.00063168195493 0.0089751450265 -0.0051749119108 
-0.0022017588228 -0.018447160853 -0.026037402853 2.2121141447e-05 -0.0014737429275 -0.00042656318616 0.001537094814 -0.021472936036 -0.018545221722 
0.011243437649 -0.023027942117 -0.0055840779596 0.020104658053 -0.015697248178 0.024882363836 -0.011595664798 -0.0013015361374 0.031571570328 
-0.0031550583974 -0.0015103400847 0.0140682079 -0.093407374226 -0.14008190915 0.22923534297 0.063418332483 -0.011562161949 -0.037615556957 
0.098269335494 -0.082133606833 -0.046796801611 0.3000904018 -0.088662976357 0.0064861946567 0.0025230557553 -0.0051934225448 0.0012751699066 
0.51640953802 -0.20474392734 0.12279675629 -0.00026044530885 0.0004613904705 -0.00049262248292 -7.8900826798e-06 -5.4013729068e-05 -0.012772771361 
-0.00010621234208 3.9796053552e-05 8.4864988687e-05 -6.4750164887e-05 -0.0013951992891 6.1128559855e-05 0.001649345771 -0.0039182271001 -0.024605796284 
0.00037912620282 0.00012092209866 -0.00021337386175 0.00056417299857 -1.3543788201e-05 1.5728043834e-05 -0.00010226225853 -0.00062292972024 0.00079267540751 
3.3796500466e-05 -0.00050203936675 -0.00096633316156 -0.00044199027217 -0.00090084370118 -0.0010450991381 0.00035395057734 0.0002193170757 -2.3681710152e-06 
0.001813294371 0.0012473082948 0.00048837389135 -9.5409332369e-05 -0.00085826965606 -0.0003893904872 -0.00046524116997 -0.0016502505605 0.0010039476867 
-7.5323050674e-05 -0.00057972054768 -8.3151559328e-05 -0.0028007622987 -0.0025774353792 -0.00094498235348 0.00065424912193 -0.0012734979033 -0.00055388290174 
0.0011639793194 -0.0011296380728 -0.00027602223498 0.0012852084949 -0.00071357695241 0.00027204176657 0.00019758443808 -0.0012917654818 -0.00014725908125 
-0.00013486662989 0.0012408685424 0.00075253978068 0.0009216068949 -0.001224911081 0.00035613263842 -0.0015636655052 -0.0018015933685 -0.00012077668514 
-0.00030538968889 -0.00088700781107 0.0010452936952 0.00071971202422 -0.00048296951483 -0.0007840523008 0.00060180592011 -0.0025575429592 0.00051479010823 
0.0005065794914 -0.0013363764951 0.00011145115535 0.10026255954 -0.050880943907 4.1569932167e-06 0.0074663167464 -0.0024620753503 -0.00060404276797 
0.0077116273142 -0.0062908887623 0.0017868896408 0.0010937031837 -0.0014258811317 0.00014531575136 0.0021040201648 -0.0016693578922 -3.8002427576e-05 
0.00058341288375 -0.0025044898233 0.00045182986318 0.00072243054936 -0.0025217950062 0.00065743153453 0.00053957074822 -0.0010248512334 -0.00028065757365 
0.0010045145147 -0.001940449741 0.0017646400382 -0.0049723966009 0.003636125036 -0.0015365254522 -3.9465364309e-05 -0.0011306290669 -0.00022245262343 
0.0010371577223 -0.002025085045 0.00015105638412 0.00031634773218 -0.0028856032313 -0.0011344320951 0.00074134902035 -0.0019556444592 -2.5401925838e-06 
-0.00080740120787 -0.0015092465931 -0.00017305559725 -0.00016984662562 -0.0017362114217 0.0013174271864 -0.00056181536119 -0.0014751298781 -0.00024178264592 
-0.00013959258628 -0.0021652676676 -0.00016091792334 -0.00063619968035 -0.0010502734903 -0.00013076380674 -0.0005985454686 -0.002191098285 0.00032489076747 
0.00016157740542 -0.0016428307601 0.00095082084667 0.001951483434 -0.0031356173422 -1.8452648703e-05 -0.002065744963 -0.0070577654437 0.0087160008851 
2.9826341428e-05 -0.0021623013493 -0.00011386093327 -0.012036863039 -0.014693983383 0.012176648775 0.00076222343514 -0.0030110327731 0.00055099987218 
-0.0055235874212 -0.0063436513726 0.00020018775218 0.0031643763114 -0.0038255222956 0.0029842486421 -0.00021172705349 -0.0023907727298 9.4461075449e-05 
-0.001330458639 -0.0025036743472 0.002364795571 -0.00010044914464 -0.0020563963283 0.0018353470651 -0.00023641300399 -0.0022688133473 0.0019741044143 
0.00375018621 0.0021064305962 0.00054203147832 -0.0032960403002 -0.00076874432435 -0.0026142997211 0.0038231336463 -0.0049555405094 0.005935727375 
-0.0068337103528 -0.0037487631656 0.00099095681084 0.0010913372837 -0.006216553081 -0.00023478557747 0.0029338245352 -0.0020272727867 0.0038529105596 
-0.00059575911284 -0.00071471138747 -0.00012895988553 0.00081472754726 -0.0071196078002 -0.00020670578462 -0.0022571017627 -0.0061725131317 0.0012319825427 
0.0017891018408 -0.00693430488 -0.0012783142931 -0.0040023491749 0.0014962126182 -0.010591622396 0.069792203378 0.02607222025 0.0034324887855 
0.058149235346 0.0054501908493 -0.00061842041816 0.0025906036019 -0.0060929307165 -0.00062758376693 -0.0010880674834 -0.0028052919338 -0.00085269387291 
0.030983555648 -0.016226015935 0.019955898391 0.0024051631898 0.0037426377225 0.0068187564587 -0.030086966922 -0.010933887901 0.0012115692437 
0.01006686635 -0.019557055142 -0.00015923179498 0.51330900921 -0.32226030367 -0.013862005889 0.050211581425 -0.08707364439 0.26208603568 
0.089383089522 -0.006566116502 -0.0022442710447 0.0034064133246 -0.040099169854 0.0020079644766 0.0084662279489 0.0092777216767 -0.010116415106 
-0.00027003344061 7.6356405318e-05 0.00023328653397 -0.0012489109061 -6.7799578923e-07 2.9174908751e-05 -0.00010492278961 0.00025587197746 0.0010545441844 
0.00035744422822 -0.00027175984766 0.00042420238304 0.00029577598751 -0.00074767287295 1.283605943e-05 0.0010021831462 0.0001296656858 0.00061195919889 
0.00010471492426 7.5607164484e-05 0.0015829815127 -0.00023716052321 -0.00031505373837 -0.00014143634202 -3.1241967851e-05 0.0020016688555 -0.0014508953343 
-0.0012389511897 -0.00083197320268 -0.00016960391985 -0.00013634326669 -0.001539171809 0.00072355340388 0.00061432022567 -0.00025516663143 0.0040396265078 
0.00020050255682 -0.0003141872943 -0.0010525436492 8.3458876391e-06 -0.00073052099101 0.00013814565921 0.00067382483019 -0.00084917901023 0.00029627324329 
-0.00040095233902 0.00015114170675 -1.2296816453e-05 0.00053297019096 -0.00018398003199 -0.0017436972869 -0.00025552385855 0.00048099018159 0.00034735701944 
0.0011808820535 -0.00029391943558 -0.00081887478286 0.00021281703867 -0.000416230042 -3.7503209798e-05 -0.00046180463961 -7.2716963825e-05 0.00011922847432 
-0.00079611875481 -0.00088142810057 -0.00079159290384 0.00021331865976 -0.00088956349605 -1.7336783798e-05 0.00029596308397 -0.0010997079918 2.9906407234e-05 
-0.00032934131507 0.00042492462303 0.0002641203558 -5.7891599504e-05 -0.00052319956367 0.0014907331842 -0.00069751388659 0.00039952615887 -0.00028275854776 
-0.00015825174082 -0.0018194077746 0.00050250761112 0.0011088916127 -0.00054560808942 0.00068770729022 0.00097917129512 -0.0011792233302 0.00092092751306 
0.0010523555025 -0.0011641408262 -4.8821620142e-05 0.0009134969862 -0.00064100903507 0.00023325976061 -0.00066044656164 -0.001176574008 -0.0001550929263 
0.00098856312071 -0.00069263716695 -0.00058219164579 0.00064065390049 -0.00098792754211 -8.2953178423e-06 -0.0001729144468 -0.0021564687883 0.00014442112835 
-0.00056059382431 -0.0019515267033 -4.0331425611e-05 0.00095783074634 -0.0016730218391 0.00046082554946 0.00042505501963 -0.0010086908146 0.00088474039604 
-0.0039285845659 -0.005811601009 1.2411174426e-07 -0.00057151898802 -0.00089371114165 0.00019397330616 -0.00094247603314 -0.00048877182392 -0.000154685463 
-5.8466506247e-05 -0.0018110627555 -0.0015413680669 -0.00017193343616 -0.0016317323587 0.00099787595067 -0.00099175296684 -0.001156628428 0.00015444035174 
-0.00091544387781 -0.0013168566096 -3.6582901382e-05 0.00010981032775 -0.00083615213167 0.00050174177634 -0.00020273957678 0.00011842013081 0.00037365990933 
0.00015254894607 -0.0018399995768 0.00040255998162 0.00047803371119 -0.0017569526232 0.0010152969043 0.00013179905957 -0.0010911026268 0.00058522305466 
-0.00073589101528 -0.00099869909394 -1.257185901e-05 0.00029684887559 -0.00056090736964 0.00037143030737 0.00048197343166 -0.0024097217144 0.00014485859551 
4.287563513e-05 -0.0010908601687 -6.5475711696e-05 -0.00010832898404 -0.0011632087054 0.00052766944775 -0.00027293767883 -0.0017966182412 -8.2736104075e-06 
4.8804318714e-05 -0.0023841275534 -9.3967988628e-05 -0.0006125927943 -0.0026120546087 0.0014975603045 0.0012790942614 -0.0016543300008 9.0635506227e-06 
-0.00044609205636 -0.0019532210227 0.00030608458151 0.0033980749479 -0.0021396772136 0.00021623500616 -0.0055907744345 -0.0086749361872 0.00012629050171 
0.0054601245287 -0.015156922012 0.0046581038269 -0.00018839233218 -0.0093962023813 0.0061190946144 0.0040251017751 -0.0027307625377 0.00066855179194 
-0.0060729524463 0.00016884353815 0.011086774695 -0.00093672544716 -0.0008387371551 -6.7205200983e-05 -5.8409130843e-05 -0.0093000588326 0.006937976634 
-0.00027873020655 -0.00029598120626 -0.000452107274 0.0018140760915 -0.0024043915884 -0.00016724756776 -0.023080330167 -0.027723069733 0.019542177478 
0.0018129266506 -0.0095134134889 -0.00012555081089 -0.089041537546 -0.038334979015 0.002823209903 -0.052557624537 0.010064961741 0.04338517004 
-0.002924362525 -0.0017736778723 0.0005649986119 0.0052764666616 -0.001391234518 0.0080260555788 0.00071588903301 -0.0025546269444 0.00096021156391 
0.0032177032452 -0.0039271894086 -0.00028297568548 0.0028383650678 -0.010911697532 0.0003387587695 0.0062489803045 -0.0027376539511 0.027115526838 
-0.0061829117545 -0.010323242152 0.0077406548994 0.0035247969369 -0.0027596784486 -0.00034386820852 0.0010102967544 -0.0038729828333 -0.0040619652134 
0.039207872531 -0.020500035084 -0.062899372108 0.017040275891 -0.059338624995 -0.047803550274 -0.043540653795 -0.010414752816 0.0068506706776 
-0.048112835313 0.00096813555757 0.10309185435 -0.00050166208762 -0.006981798732 0.035869543737 -0.0036146408935 -0.0038616903307 -0.017065324861 
-0.0019571158084 -0.00033069312846 -0.00019975371039 0.0010089803039 -0.00097102739733 0.00069318724367 -0.0018620234315 -0.00056641574492 -0.00067322685709 