# vtk DataFile Version 4.1
vtk output
ASCII
DATASET UNSTRUCTURED_GRID
POINTS 1274 float
0.512208 0.555731 0.0379507 0.469128 0.652138 0.105436 0.4873 0.5994 0.268458 
0.494368 0.588467 0.0994167 0.423201 0.757097 0.0323141 0.424079 0.769365 0.11916 
0.475215 0.638276 0.213086 0.459742 0.671432 0.268649 0.393196 0.846886 0.0593671 
0.398007 0.813721 0.164201 0.445292 0.70084 0.215209 0.432117 0.740497 0.265756 
0.362229 0.90427 0.0319701 0.343023 0.969977 0.0515588 0.380846 0.879576 0.146347 
0.394276 0.845684 0.231906 0.344771 0.958949 0.260017 0.313277 1.04088 0.0387196 
0.389467 0.915454 0.0868018 0.446927 0.90005 0.110201 0.331633 0.997658 0.129793 
0.408645 0.916376 0.218395 0.30999 1.03877 0.265121 0.3516 0.930483 0.187869 
0.280838 1.10372 0.0483372 0.327605 0.988715 0.200465 0.286175 1.10928 0.260298 
0.257071 1.1641 0.0336644 0.356314 1.11731 0.105086 0.301396 1.07009 0.109604 
0.289568 1.25381 0.0382189 0.302454 1.04638 0.200315 0.283101 1.10162 0.172623 
0.332563 1.25706 0.0929442 0.38383 1.15945 0.0371597 0.275121 1.1495 0.110546 
0.42084 1.1514 0.106643 0.260247 1.15162 0.208778 0.339838 1.10819 0.211459 
0.218378 1.25689 0.0332147 0.319131 1.18776 0.0546369 0.319349 1.15796 0.173782 
0.244283 1.20015 0.164791 0.287542 1.18399 0.26484 0.238623 1.22322 0.0939408 
0.37101 1.23338 0.0356631 0.236262 1.23092 0.236621 0.215258 1.25778 0.149879 
0.54071 0.47097 0.0302097 0.611494 0.295747 0.0942359 0.595301 0.359313 0.120774 
0.59676 0.347977 0.196943 0.57591 0.389337 0.266497 0.609783 0.315136 0.26152 
0.540433 0.470654 0.209908 0.508312 0.558822 0.219368 0.603287 0.329159 0.0358989 
0.566556 0.417813 0.159255 0.483274 0.625822 0.0390805 0.609953 0.4768 0.0480886 
0.545733 0.475586 0.0985156 0.549349 0.448673 0.268473 0.564944 0.573038 0.262775 
0.527163 0.51307 0.159517 0.550144 0.669796 0.0308582 0.445044 0.712311 0.07826 
0.517316 0.698658 0.105965 0.470933 0.754737 0.178144 0.550658 0.548769 0.100725 
0.523338 0.659883 0.266703 0.445972 0.697845 0.146456 0.41434 0.779055 0.214284 
0.500812 0.682194 0.170562 0.553847 0.578185 0.168527 0.493716 0.7819 0.0918016 
0.534819 0.762106 0.146156 0.457837 0.816264 0.0363744 0.508217 0.725899 0.0397542 
0.484033 0.81916 0.150696 0.43614 0.836782 0.11333 0.363965 0.895585 0.269731 
0.49891 0.770642 0.260787 0.538517 0.618844 0.21916 0.562939 0.748922 0.220303 
0.467407 0.816948 0.213526 0.506149 0.707514 0.22704 0.459791 0.890934 0.0401993 
0.520419 0.855474 0.0357143 0.535151 0.792689 0.0326227 0.454134 0.8772 0.177788 
0.494436 0.851623 0.0956116 0.465445 0.871413 0.260664 0.4383 0.805361 0.269011 
0.416349 0.952973 0.0373633 0.37332 1.09104 0.0325887 0.465451 1.00593 0.0331286 
0.399893 0.998376 0.0946271 0.414773 0.94952 0.15038 0.46742 0.965338 0.0911495 
0.485417 0.942431 0.261519 0.419541 0.973802 0.261479 0.534875 0.984943 0.268901 
0.459136 0.954124 0.202936 0.383347 1.02599 0.0323972 0.365248 1.05656 0.085194 
0.463377 1.0333 0.0903979 0.36245 1.06427 0.158486 0.395082 1.00584 0.196905 
0.441396 1.05206 0.264238 0.376789 1.03021 0.267487 0.48338 1.00511 0.23588 
0.455944 1.13778 0.0385395 0.470372 1.08426 0.123239 0.426954 1.04329 0.13884 
0.361142 1.09158 0.269156 0.525252 1.18043 0.176188 0.490051 1.10394 0.267825 
0.407934 1.08937 0.213125 0.429588 1.13462 0.264219 0.445287 1.1218 0.166709 
0.359047 1.1617 0.260112 0.510328 1.18833 0.0382154 0.498146 1.14801 0.11869 
0.435904 1.20757 0.0341937 0.369132 1.20326 0.101298 0.380999 1.13452 0.166498 
0.338963 1.23803 0.260951 0.453043 1.16902 0.207636 0.402101 1.20784 0.220861 
0.469322 1.19181 0.266121 0.486748 1.25631 0.0362705 0.31216 1.21362 0.137407 
0.459877 1.25028 0.22635 0.30019 1.21411 0.204109 0.473508 1.21386 0.169785 
0.372545 1.23094 0.163543 0.639647 0.231372 0.178992 0.564276 0.412426 0.0315355 
0.659987 0.193059 0.0559062 0.661499 0.287239 0.212725 0.640005 0.241509 0.26351 
0.669004 0.174303 0.206902 0.642863 0.223146 0.115178 0.631807 0.407167 0.036345 
0.592507 0.423928 0.089525 0.52681 0.510314 0.265843 0.604832 0.48812 0.262778 
0.617411 0.291024 0.158998 0.638941 0.377709 0.24562 0.613657 0.460748 0.136976 
0.587231 0.547565 0.0375169 0.660372 0.424176 0.10187 0.533772 0.63711 0.132112 
0.603969 0.52922 0.146556 0.575024 0.525581 0.211613 0.592216 0.434015 0.220505 
0.613313 0.624809 0.2663 0.60351 0.719276 0.0390308 0.555221 0.611113 0.0648177 
0.568937 0.735302 0.0984841 0.566117 0.699051 0.157387 0.59977 0.710963 0.268227 
0.590761 0.63527 0.174245 0.643284 0.641957 0.210893 0.57208 0.672921 0.224381 
0.596554 0.759799 0.159903 0.586691 0.667035 0.096064 0.639423 0.788597 0.0390305 
0.561337 0.797961 0.0908598 0.54195 0.814946 0.18985 0.545099 0.832723 0.261834 
0.61589 0.775446 0.26525 0.515931 0.873939 0.210725 0.625161 0.709972 0.200672 
0.600512 0.822765 0.22161 0.584829 0.838114 0.0355415 0.56068 0.861942 0.0930698 
0.565625 0.910918 0.0397004 0.503519 0.94487 0.0315429 0.552002 0.910134 0.260436 
0.598066 0.96784 0.265549 0.528259 0.863543 0.146506 0.505655 0.924703 0.172965 
0.534928 1.00449 0.0510922 0.522444 0.917547 0.106752 0.473542 1.06004 0.18911 
0.468129 0.996317 0.154828 0.537084 0.989429 0.138381 0.518023 1.04758 0.269179 
0.570957 0.945372 0.192424 0.436308 1.06724 0.0347794 0.539296 1.12557 0.0335714 
0.573008 1.06568 0.0351733 0.503925 1.0663 0.0328709 0.552173 1.10824 0.095452 
0.522833 1.05076 0.104729 0.543226 1.00923 0.209317 0.502827 1.12627 0.205319 
0.538099 1.23478 0.0890061 0.573807 1.21196 0.032288 0.563238 1.17766 0.123192 
0.522971 1.09235 0.152392 0.604573 1.0879 0.268671 0.539545 1.23874 0.159066 
0.53397 1.21292 0.238077 0.565986 1.13126 0.180556 0.557602 1.07377 0.21446 
0.553749 1.13786 0.259467 0.639384 1.20782 0.0431868 0.621574 1.21039 0.110568 
0.464341 1.21569 0.100671 0.64736 1.23681 0.221392 0.595042 1.19978 0.186361 
0.760037 1.18482 0.207491 0.679014 0.130806 0.0405101 0.693295 0.119549 0.112843 
0.721563 0.0322016 0.192842 0.682025 0.134225 0.265517 0.69798 0.094173 0.181464 
0.636976 0.262611 0.0387331 0.69518 0.315604 0.0396742 0.702532 0.225088 0.149853 
0.704227 0.266816 0.267353 0.640308 0.406546 0.174538 0.695019 0.199971 0.26745 
0.678373 0.327502 0.266699 0.662634 0.336478 0.137771 0.680343 0.458842 0.0421462 
0.659017 0.495349 0.0971368 0.652245 0.357556 0.0777216 0.685818 0.467182 0.158278 
0.649194 0.462236 0.216849 0.68137 0.278611 0.104506 0.727598 0.412634 0.194482 
0.690612 0.353736 0.20118 0.611435 0.645602 0.0351628 0.661864 0.525661 0.0349396 
0.635154 0.558347 0.0889942 0.595215 0.600083 0.120066 0.647828 0.607965 0.156635 
0.663759 0.684145 0.262133 0.637849 0.54689 0.269081 0.68682 0.582824 0.207149 
0.616749 0.57893 0.208557 0.672475 0.547536 0.150002 0.677341 0.516662 0.206195 
0.628489 0.715839 0.122556 0.658063 0.655516 0.0913422 0.696975 0.572953 0.0972986 
0.708282 0.62793 0.13851 0.717225 0.647625 0.206889 0.66076 0.823789 0.268702 
0.664881 0.672487 0.159431 0.623972 0.803055 0.116819 0.647415 0.877173 0.0390998 
0.689628 0.761907 0.0795548 0.707966 0.703243 0.0847829 0.680058 0.763284 0.149059 
0.63691 0.776214 0.20304 0.696728 0.716054 0.204808 0.61351 0.869231 0.265677 
0.582964 0.872605 0.181691 0.614816 0.970046 0.037251 0.668614 0.985318 0.0763864 
0.62964 0.869196 0.106122 0.64355 0.927518 0.0887635 0.586827 0.908842 0.12595 
0.609952 0.967965 0.138999 0.634316 0.985169 0.209687 0.676608 0.849882 0.147963 
0.635883 0.923159 0.233734 0.643799 0.866367 0.20711 0.633015 0.916866 0.16913 
0.630453 1.10783 0.030065 0.641962 1.04057 0.0401474 0.694433 1.09294 0.0358784 
0.574368 0.95733 0.0910712 0.594038 1.02163 0.0955688 0.667531 1.04287 0.11581 
0.577996 1.03099 0.26045 0.613645 1.02598 0.161778 0.671739 1.03192 0.184271 
0.61657 1.09022 0.0911828 0.621894 1.14385 0.138707 0.696833 1.16586 0.0370848 
0.596147 1.15446 0.0646893 0.582469 1.07881 0.146861 0.624003 1.05644 0.21711 
0.741262 1.13251 0.0835044 0.635988 1.13325 0.223594 0.661048 1.09299 0.167506 
0.603665 1.19624 0.263609 0.749163 1.21318 0.033559 0.790572 1.18299 0.100844 
0.689471 1.16992 0.106131 0.672633 1.199 0.168349 0.677294 1.18785 0.260436 
0.722115 0.0831573 0.0341645 0.754011 0.121948 0.0764719 0.718136 0.0491496 0.117776 
0.783994 0.0581437 0.125612 0.723344 0.0417428 0.26252 0.735101 0.105307 0.242556 
0.707772 0.242085 0.0350587 0.751094 0.18193 0.0391988 0.768639 0.265836 0.0304518 
0.737113 0.177821 0.110555 0.72805 0.156581 0.172791 0.755829 0.167276 0.2634 
0.774154 0.23032 0.155706 0.76966 0.24363 0.261991 0.731309 0.209819 0.212691 
0.702931 0.391212 0.0363959 0.764777 0.327571 0.0315086 0.720275 0.333423 0.103295 
0.747103 0.2522 0.0928435 0.732436 0.418867 0.092505 0.764459 0.374129 0.12673 
0.703575 0.387202 0.140871 0.747802 0.320409 0.263464 0.734751 0.281857 0.198237 
0.697018 0.420045 0.260497 0.726599 0.513765 0.0862809 0.752635 0.463587 0.0378106 
0.797243 0.485079 0.0863207 0.754587 0.469098 0.134276 0.789778 0.419727 0.16993 
0.67461 0.494208 0.266634 0.803996 0.511508 0.264172 0.773735 0.401488 0.260577 
0.740504 0.481069 0.246976 0.718197 0.548537 0.263651 0.669331 0.599227 0.0391266 
0.694551 0.664791 0.0315331 0.736875 0.533613 0.175144 0.761115 0.581773 0.121352 
0.67871 0.613908 0.2674 0.752501 0.585311 0.216959 0.74328 0.622277 0.267491 
0.673489 0.724052 0.0329207 0.747772 0.749004 0.1116 0.758445 0.692504 0.038465 
0.727847 0.75504 0.0312093 0.748639 0.656393 0.0969515 0.740008 0.693808 0.261127 
0.687686 0.817412 0.208768 0.726508 0.692726 0.146244 0.751263 0.745325 0.178408 
0.693972 0.744988 0.269539 0.702038 0.934355 0.0399814 0.717171 0.853696 0.0346118 
0.681334 0.825499 0.0845414 0.694121 0.888686 0.095579 0.739319 0.810225 0.159485 
0.738669 0.839128 0.260086 0.733874 0.77656 0.228912 0.681303 0.886183 0.265524 
0.713048 0.877943 0.206622 0.687951 0.951328 0.268911 0.717671 1.021 0.0398203 
0.725499 1.06935 0.0897202 0.72709 0.953397 0.107552 0.689461 0.948135 0.205736 
0.672062 0.975978 0.138687 0.693419 0.918569 0.150766 0.730334 1.00976 0.155564 
[...]
POINT_DATA 1274
FIELD FieldData 10
VELOCITY 3 1274 double
0.00050163052389 -0.00072714597817 -0.00036166799141 0.00015299065972 -0.00079693056017 -0.00062971767203 0.00024269348404 -0.00066459294899 -1.5060851612e-05 
0.00046314443724 -0.0018681604041 0.002050782453 0.00023781347496 -0.00091489316789 -0.00017161595044 0.00038071582046 -0.00070269401506 0.00027309378874 
0.00025815669576 -0.00048451646529 -0.00013954676814 -0.0006078964236 -0.0011203451633 -2.7820161021e-05 0.00045748345426 -0.0010168442426 -0.00017693719025 
0.00012190673008 -0.00061726430575 0.00022942863082 0.000374805831 -0.00089917591051 -0.00012271017785 0.00042151750859 -0.0010880069971 1.4577652589e-05 
0.00030636473574 -0.00087601115448 8.4038433343e-06 0.00042921522095 -0.0010055815788 -9.4198630622e-06 0.00029677179024 -0.00066609013937 -6.7191596886e-05 
0.00038290999227 -0.00093148296427 7.7773675278e-05 0.00035290499763 -0.00084074601083 4.4186027804e-05 0.00040189017179 -0.00095611358625 5.0199543468e-05 
0.00069491424994 -0.00083579754517 -0.00013763652475 0.0010149042293 -0.00074114349886 -4.2492006926e-05 0.00040833664075 -0.0011068652736 6.224908319e-06 
8.8262476079e-05 -0.00085471366889 -3.8395132081e-05 0.00024028739501 -0.00057837146474 0.00018082906342 0.00023772552619 -0.00058504856609 -5.0355678003e-05 
0.00040331108546 -0.00096949605252 7.5943670486e-05 0.0001847181587 -0.00062462617583 0.0001717126604 0.00023866994715 -0.00055941422267 -3.9249785327e-05 
0.00025032622879 -0.00061508152883 9.1553673235e-06 0.00050405144754 -0.0010941115563 -0.00067014421907 0.00027680722217 -0.00073018498194 -0.00038550494344 
0.00018940895298 -0.00093705896077 -1.0103984617e-05 0.00026659661058 -0.00055490286398 -3.9495598656e-05 0.00025699124454 -0.00061888586758 -0.00016259224927 
0.00048721064323 -0.0010821928565 -0.00025576957851 0.00048772713755 -0.0010767478989 0.00025172551936 0.00032737372835 -0.00068846616618 -5.1035033978e-05 
0.00037837212008 -0.0011632021864 0.0001009787999 0.00026191946062 -0.00064340806556 -0.00012095576847 0.00021972534995 -0.00093152765639 -2.7192487935e-05 
0.00021886165186 -0.00049624326784 1.114178149e-05 0.00038917734539 -0.00094838100067 -0.00026976643239 0.00029238418278 -0.00089271005331 -6.8280889169e-05 
0.00025010400759 -0.00063265026222 -0.00013327394132 -9.064698087e-05 -0.00054264104795 -2.716574736e-05 0.00028870884364 -0.00075382526273 -0.00024111448355 
0.00047866120163 -0.00092595268247 9.6987226281e-06 0.00019612685717 -0.00048281725033 -0.00040252139966 0.00027071346507 -0.00065869888032 -0.00034888783966 
0.0036888098303 -0.0042382812656 -7.5408412473e-06 0.0013978475601 -0.0006327884675 0.00050218737987 -0.00026722595593 -0.00056886085015 0.00053302085907 
0.00057906879176 -0.00083547500039 0.00051501203146 0.00037031180724 -0.0016548473153 -0.00074441572822 0.00026378264165 -0.00085308693578 0.00037597461835 
0.00022282016364 -0.00049258645925 0.00057110989163 0.00025876721784 -0.00042360540825 -9.8272955594e-05 0.0001275858376 -0.00027374451853 4.0710454606e-06 
0.00048761740704 -0.00078849408805 0.00039761530463 0.0004654075087 -0.0010689184766 -0.00028409594338 -0.0003495471218 -0.0010545992071 -1.4352313458e-05 
-0.00012115079385 -0.00077011507221 0.00036708155397 0.00051271667275 -0.00056102150732 6.8324465544e-05 -3.8293260326e-05 -0.0010928504429 0.00011666991951 
0.00011856487517 -0.00059529972536 -9.2483430289e-05 0.00067148872345 -0.00059866933688 -7.5115582997e-05 0.00014944040397 -0.00023885549315 0.00053356173813 
0.00020216844039 -0.0006752448134 0.00072409796827 0.00052088829548 -0.00083814827732 3.1917650649e-05 0.000795894211 -0.00071159215046 -0.00047865567236 
-0.00080713239056 -0.0013027284039 6.8787668309e-05 0.0003645697761 -0.00051876646265 -0.00012297947527 0.00030166247214 -0.00088804355925 0.00011426319291 
0.00018742992657 -0.00090056324355 -0.00051497958979 0.00046792344947 -0.00076849842433 -4.325470718e-05 0.00016171287591 -0.00074854193536 1.3770196538e-05 
0.00091376944128 -0.001720133005 0.00086427388209 0.00061871123634 -0.0010485727987 -3.9312991175e-05 0.00038056663504 -0.0010777910736 7.8303523479e-05 
0.00067643201751 -0.0010049117145 0.00032720852687 0.00015125569 -0.00057353807164 -2.4758862501e-05 0.0003595817796 -0.00085174676186 -4.6074601264e-05 
0.00028175315297 -0.00077587205188 -0.00011707984661 0.00058675370338 -0.00023331835956 -0.00040889069839 0.00048967192124 -0.0013250219879 -6.4093220719e-06 
-9.0520418148e-05 -0.00059141062534 -0.00033283933787 0.00026513923802 -0.00087174482717 1.8482078973e-05 9.1831547548e-05 -0.00088895442792 0.00027686567729 
-5.294764363e-05 -0.0011453306536 -0.00096066823511 0.00034028050887 -0.0011088636407 1.6173438386e-05 -0.00020081341748 -0.00099347329115 -8.3912904704e-05 
0.00057157098017 -0.0010251684803 -0.00015272160192 -0.00037210483612 -0.00095040733023 1.5800686303e-05 0.00030336561572 -0.0010953476531 3.9957126268e-05 
0.00042583978303 -0.00049100268683 -0.00012797717066 0.00010946071065 -0.0010364831375 1.5051184204e-05 0.00032406833069 -0.00069717400174 6.6697687995e-05 
0.00028012646651 -0.00091152612588 0.00028708989316 0.00059086899121 -0.0007286117778 0.00015527207634 0.00033670530094 -0.00076611112783 0.00012433624699 
-2.2631689118e-05 -0.0010193579957 0.0007054520849 -3.5432257198e-05 -0.00092030861848 0.00013314377048 0.00029281978681 -0.0011023662516 -4.9735750681e-05 
0.00056530089213 -0.0014746279554 0.00033673550283 0.00019856040829 -0.00089990874402 1.2367904475e-05 0.0001215440482 -0.0012393911211 -0.0001676336168 
0.00040794896815 -0.00065214670791 0.00026133412826 0.00022545208658 -0.00085208706117 3.1590351057e-05 0.0002602659343 -0.00081314291823 -9.5729715808e-05 
0.00032712803401 -0.00044379897345 3.8525832329e-06 0.00024136852287 -0.00066936444567 -0.00034032037394 -0.00035272492881 -0.0011096128493 0.00075323700415 
0.00052474335624 -0.00098156455091 3.3564746573e-05 -0.00014908879522 -0.00064628213071 0.00050970594908 0.00017584183187 -0.0011358941355 0.00021027710664 
-0.00019925396701 -0.00080513398079 5.7461384333e-05 0.0012466752009 -0.0012941407944 -0.00079134414243 -0.0005488301881 -0.0014821578014 -0.0002453310498 
-5.2086422968e-05 -0.00069510318066 4.2347808101e-05 -2.6673243991e-05 -0.00059896101234 -3.8160596562e-05 0.00039852015818 -0.0012368146764 0.00012682644445 
-0.0001617601354 -0.00082095207256 4.9812209878e-05 0.00025344762356 -0.00086539003596 0.00033459953325 0.0002748088898 -0.00080247915339 0.001410839917 
0.00039753715403 -0.0010567674455 2.7416994531e-05 0.00058922868649 -0.001044523333 -0.00035353583586 0.00041311568751 -0.00085477691543 0.00021489239529 
7.0479587305e-06 -0.00079311603659 -2.5319368523e-06 0.00065769041358 -0.0011275809672 -8.4006140099e-05 0.00054002491798 -0.0015030325673 -0.00011385493564 
-2.1089874544e-06 -0.00076362268215 9.2538527525e-06 0.00027672989151 -0.00089012259702 -1.0383575458e-05 0.0003677354477 -0.00080282214226 -4.7995695934e-05 
0.00014929012885 -0.0010452853472 -0.00056522510738 0.00027477968164 -0.00082750192866 -9.1931103802e-05 0.0011012882859 -0.0014705651765 -9.0652843148e-05 
0.00055089233683 -0.001518289019 -0.00011676011763 -5.8532351929e-07 -5.6951696461e-05 0.00089747698034 -0.00026766686952 0.00085012682963 -0.00028851103457 
-3.9787472962e-05 -0.00011933536441 0.00077723103706 0.00088473090847 -0.00083176995538 -6.1589960316e-05 0.00017541893165 2.0057651424e-05 0.00071571712451 
0.00024538178482 -0.00022532038647 0.00029183173943 7.6402128524e-05 -0.00041613214858 0.0011264429087 -0.0018053900084 -0.0015585853189 9.3805199842e-05 
0.0011729085584 -0.00032896123226 0.00020563139491 0.00016888320132 -0.0004855561876 -8.1441885374e-06 0.00071198733737 -0.0011890651881 -3.1069880123e-05 
-0.00041445449095 0.00015867092519 0.0007032821291 0.00027911250532 -5.9603241163e-05 0.0013239014791 -0.0006634374964 -0.00032323876647 -0.00087783889547 
0.00048220534172 -0.0010689067473 -7.0883124417e-06 0.00025209601338 4.7537440146e-05 -0.00012306245038 0.00084405446782 -0.0011915877307 -0.00056060093243 
0.00077059425587 -0.00080749136685 0.0010458910875 0.00067363464278 -0.00076622623003 -0.00028991845356 0.00063550442964 -0.00040833665797 0.00012152875874 
0.00019502998433 -0.0012178975423 -4.6734823706e-05 0.0004052720229 -0.0016519822099 0.00019521018951 -0.00030212235439 -0.00045374138243 0.00045845784519 
0.00019345967509 -0.0001192081166 -0.00047949551111 0.00035056215112 -0.00090781102491 0.00038873886316 2.2875767e-05 -0.001202729831 8.5384248482e-05 
0.00082531871788 -0.00090697375521 0.00023965222843 0.00069622245497 -0.00092723498013 8.2852487877e-05 -0.00015806721002 -0.00096167833668 -2.7930089236e-05 
-0.00090352868518 0.00021187145397 0.00022178966986 0.0002793008512 -0.00063279020359 -0.00019922459865 -0.00049915135788 -0.0011578920076 7.9290380494e-05 
0.00015755440163 -0.00070805219773 0.00024611237276 -0.00074799327741 -0.00062046657945 -0.00010565290637 0.00075700658169 -0.00091701686812 -3.9957661051e-05 
-5.2242047572e-05 -0.00073038424728 3.4536038676e-05 -0.00032160800944 -0.00087357084614 0.00018763359241 0.00024089911129 -0.0012764852508 0.0004627313132 
-7.4200160485e-05 -0.0013719769144 -0.00032286706507 0.00013036739465 -0.00064646071375 -0.00054920060988 1.8461860189e-05 -0.0015293847177 -0.00017221300698 
0.00018057886643 -0.0014766662693 2.6518171625e-05 0.00019497890279 -0.0010411841735 -0.00031447158819 -4.7118252312e-05 -0.00080852214126 -9.819995208e-05 
0.00033624798981 -0.0009580560217 0.00017893747534 0.00021479775925 -0.00071858203003 -0.00013572555254 -5.4985331378e-05 -0.0012054053226 -0.00090773669518 
0.00019283212781 -0.0010474070207 0.00028840068982 0.00018210003306 -0.0014244979402 -0.00083445454133 0.00026159809429 -0.0012885460489 0.00027202559201 
0.00062826461102 -0.00099990836139 -8.9390161891e-05 0.00073159823536 -0.00065963389634 -0.00067014353941 0.00030337524859 -0.0010310099504 8.381392273e-06 
-0.00034955505371 -0.00089850833497 -0.0002143187361 0.00017004698519 -0.00086228747981 -6.6902260013e-05 -0.00048715275905 -0.0012204712481 -2.6363565255e-05 
3.3160206825e-05 -0.00091507178251 -8.3047461123e-05 0.00012143935334 -0.0010665705508 -1.1635959791e-05 2.6606286051e-05 -0.00028722501207 0.00018659497756 
0.00044592081861 -0.00054947077812 -0.00021036468762 -0.00029331303569 -0.0010621557325 -0.00014265367216 0.00049904688782 -0.001161465871 -0.00096464243575 
0.00035968607102 -0.0011083370102 0.00031248155095 0.00015820330853 -0.00082485676493 3.1501425341e-05 0.00052428784083 -0.0012391617829 1.6511835583e-06 
3.5239140657e-05 -0.0012382899914 0.00047586049955 0.00039756972338 -0.0010008648406 2.6055463025e-05 0.00059567077622 -0.00083564596061 0.00029179287282 
9.3411802803e-06 -0.0017078933685 -0.00041856120595 0.00075616957676 -0.0015971973025 -0.00013794530394 -0.0010078837094 -0.00093803877257 0.00063335660288 
-0.00033800272492 -0.0017492924847 -4.216120311e-05 0.00022362553621 -0.00091415854189 -0.00035964122091 0.00015804416721 -0.00071767350492 -0.000282900962 
0.00023429771004 -0.00091057234647 6.920649198e-05 0.00025748103797 -0.0013781334345 0.00018878348203 0.00037774328428 -0.0013857704771 -5.9626138095e-05 
0.015499139949 -0.016532200262 -0.0043706593124 -8.7374612024e-05 0.00017604077055 -0.00040147740762 -0.00033143836135 0.00067426395612 0.00066603768461 
-0.00015120673485 0.00014866571234 0.00025991861766 0.00015759539475 -0.0013604973476 -0.00030850806586 -0.00030422645917 0.00082168737484 0.00082717693271 
-0.00059584855505 -0.00069127533244 -1.0084973847e-05 0.00069959551441 -0.00052594250896 -1.4929218966e-05 -4.0427816233e-05 -0.00028551099856 0.001149907874 
0.00025837958704 -0.00053574167913 -0.00020866375538 -0.00020544160817 -0.00073910011918 -0.00036210281778 8.4793272271e-05 -0.00072065306837 -7.1918361984e-05 
0.0020467112308 0.00074385421122 0.00039375757865 -0.00037491017021 -0.00097864797363 -7.1715809613e-05 -0.00038175803237 -0.001254016688 -0.00080813553166 
-0.000116466898 -0.00068982124919 -0.00061788853303 0.00065120639281 -0.00089570695847 -0.00013395391183 -0.00022394956255 -0.00037710690844 -0.00038514795659 
0.00076056340441 -0.00078703460139 0.00017908846159 0.00072758586015 -0.00083964230677 -0.00026074536048 0.0066885109681 -0.0028544009204 0.015889057539 
-3.9645656158e-05 -0.00037901541808 4.5975328522e-06 0.00031140657932 -0.0015083805026 -0.00011818188206 -0.00011328666697 -0.0011323254699 -0.00010865167003 
-0.00012480543016 -0.00046994883011 0.00062768154565 0.00054229137648 -0.00090874406472 -0.00045543653056 0.00025874940409 -0.0015450087877 0.00059185284358 
0.00018998209625 -0.00075918309294 2.7876583456e-06 0.00013681706943 -0.00092580126707 -1.4131278075e-05 0.00021773510183 -0.00069842002966 0.00016058007848 
0.00024066256631 -0.00059605548626 0.00069179822252 0.00093966040012 -0.00069462296704 -9.5864762009e-05 0.00027228960783 -0.00069001742291 -7.6544918704e-05 
0.00051205313922 -0.0011571618025 0.00016011884382 0.00023428260907 -0.0016132922714 0.00039941570667 0.00073592860774 -0.0012461761774 -0.00048644911172 
2.3241262582e-05 -0.0013406686897 0.00030168860059 0.00024346588559 -0.00070066257543 -0.00018182748837 0.00017718350826 -0.00098072715713 0.00011152249276 
0.000424397591 -0.00098742589459 0.0003861114916 0.00053362547912 -0.00092900091238 0.00021132029109 0.00029222420976 -0.0011137586332 0.00010637729854 
-0.0005385410734 -0.0011298794128 -0.00020995000491 0.00035114362765 -0.0016372157294 0.00067535898584 0.00027699866425 -0.0013119928449 -0.00022376193278 
0.00057022497781 -0.0012508830041 0.00014388597041 0.00052180084116 -6.9792137185e-05 0.0002545406128 -0.00054169312643 -0.0015858462094 4.3355585575e-06 
-8.3677970195e-06 -0.0010768894638 0.00055576213821 -0.00027001615139 -0.00117552777 8.4539391473e-05 -0.00027639118461 -0.0010075897058 -3.9021103266e-05 
0.00062353011635 -0.00072978163731 0.00014896855648 0.00024333148769 -0.00077837238313 -0.00029483556074 4.0249300955e-06 -0.0010500931331 -0.00029582457203 
0.00039071756023 -0.0012344857182 -0.0001417546013 0.00035433434271 -0.001328439458 -5.0054981474e-05 0.00098018008254 -0.0013116079683 -4.4292897055e-05 
-0.00017089956801 -0.0010815465418 7.7432536241e-05 -0.00080358018605 -0.0023405754347 0.0020428488988 -0.00020569088677 -0.0014154760383 -7.2867103977e-06 
0.00013985913508 -0.00090582561905 1.6413767067e-05 -3.8146726024e-05 -0.0012323416184 -0.00042793321259 0.00011645338679 -0.0013725238733 -6.8180820476e-05 
0.00023625342231 -0.0013458352892 -0.00015819512964 0.00048632065331 -0.0011734193846 -0.00011139202654 0.00010008994098 -0.00092948083923 -6.546673807e-05 
0.00032691911957 -0.00092754196021 -1.8792259999e-05 0.00066274154668 -0.0013658012451 -0.00015799118592 0.00045316777022 -0.0012722917616 -0.00020872525154 
-0.00025883590605 -0.0010717405042 -5.6246245554e-05 0.00096986478224 -0.00077499198942 -0.00048340356059 -0.00011269271506 -0.001448824658 8.6885773781e-06 
-0.00034231171429 -0.0011560378664 -0.00038833791631 -9.3396532799e-05 -0.0018245203139 -0.00015843771251 -4.7934016603e-05 -0.0011815454994 -7.6810470274e-05 
3.7469162389e-05 -0.00135896597 -4.0358833426e-05 0.00021512416238 -0.00087387058929 1.8719571454e-05 -7.5584805513e-05 -0.0012171137739 0.00019405277918 
-0.00021965301297 -0.0018727856272 3.4821668776e-05 -2.9147823177e-05 -0.0015535487166 1.6261847372e-05 0.00036078993176 -0.0017269686485 5.7849500474e-05 
0.00035515274059 -0.00082692770383 -2.6251205803e-05 0.00042193290205 -0.0010219106872 2.221621318e-05 -0.00014123799807 -0.0013249784012 0.00059269517436 
0.00032691179096 0.00036063990413 0.0001406242819 -0.00049327391121 -0.00027564851499 0.00018968468969 -0.00024506984838 0.0006970043125 0.00076888127038 
-0.00019692927095 -0.00090543615317 0.0011371872698 0.0003463345033 -0.00090872180499 1.5450289466e-06 0.001068325719 0.00027150949915 0.0012418057279 
0.0001315011417 -0.00020899860937 0.0012764183925 0.00018055104653 -0.00041057936155 -0.00047630509162 0.00056987127672 0.0011168065299 -0.0012274423095 
-6.6235084109e-05 0.00023459406367 -1.1405618958e-05 -0.00023453810548 0.00054421163151 -0.0013669676541 0.00057268936775 -0.00035830258502 -5.1837675317e-06 
0.00016120756031 -0.00021781753101 -0.00083660810172 -4.2745702402e-05 -0.0011838311682 -0.00052723785086 0.0013912323058 -0.0010759948446 0.00039755071332 
5.3900705251e-05 -0.0001865116475 2.3921872068e-06 0.00089509886952 -0.00013170905044 -0.0004985935165 -0.00038070264956 -4.1446043967e-05 0.00046549448226 
0.00068249348612 -0.00084863656387 -0.00057657275309 0.00026087194432 -0.0004773355966 8.4148341018e-06 0.00019740665403 3.8501145585e-05 0.00055639477571 
-0.00034899867765 -0.00027282269737 -4.1224701434e-05 0.00034303418274 -0.0006574802128 4.2963497331e-05 0.00033522578312 -0.001216681539 -0.00023823507777 
0.00016513953752 0.00028284998518 -0.00038781059987 0.00029712055341 -0.00069097290388 0.0010141410452 -0.0006143716787 -0.00040246687036 0.0003012555199 
-0.00013745876564 -0.0012470268491 0.00030410459868 0.00017321357897 -0.00097463756803 0.00089257227948 0.0013509319289 -0.00084437048974 0.0011082421196 
0.00068188773605 -0.00079753795454 1.338489979e-05 0.0005640794647 -0.00015293108378 0.0001912441546 -0.00023678978664 -0.0015669443161 0.00034899340645 
0.00045477383776 0.00013716535203 -0.00039917578253 0.00045752039092 -0.0003467852501 8.0363349162e-07 0.000374966968 -0.0010861795516 0.00030672090658 
-0.00038287120468 -0.00093088388634 3.9187467248e-05 0.00085737814898 -0.0012870817036 0.00052946855385 0.00030306465555 -0.00035645758744 0.00096055529577 
0.00013417304308 -0.00043888568078 1.5126301349e-06 0.00031249927149 -0.0002143616508 -0.00049076680176 0.00022423898753 -0.00090150497473 -1.4087367904e-05 
8.8029490073e-06 -0.00069063202893 -0.00054174766442 0.00070010350778 -0.0013312192502 0.00085442323366 -0.00026091432145 -0.0010834933255 -0.00012996780411 
5.876010553e-05 -0.0014144219553 0.00038345836189 -0.0004331432752 -0.0011315843581 1.6899830037e-06 -0.00034345655705 -0.0010209197088 9.3604872507e-05 
0.00050601222071 -0.0014502288806 -9.1128025053e-05 0.00057288555264 -0.0017226187503 0.00049901829862 0.00045671146669 -0.001405370232 0.00089576649167 
0.0003951321869 -0.00087685361108 4.2432142081e-06 -1.7981055728e-05 -0.00081082364801 -2.0781465634e-05 0.00049793366527 -0.0013940375904 7.360087421e-06 
5.1718197688e-05 -0.0013362147335 -0.00060200157401 -6.8961224505e-06 -0.0013286956863 -0.00028003451219 0.00047271382022 -0.0008545583032 -0.00010255140128 
-0.000444098005 -0.001384977355 -3.7064846348e-05 -0.00062867693876 -0.0019064530914 0.0011640976582 0.00023925367563 -0.0011909932384 -0.00039571844168 
-0.00014021405472 -0.00091963080755 0.00031679463784 3.0944931407e-05 -0.00082888944112 -1.7696149941e-05 -7.8703995662e-05 -0.0013641732904 -3.6745973906e-05 
-7.594257726e-05 -0.0012535899329 -0.0001519489931 0.0006362908621 -0.0016368080917 -9.7191510455e-06 -7.367319416e-05 -0.0020415259309 2.5751476315e-05 
-8.4897942127e-05 -0.00089248725556 0.00033735631671 -0.00014853203391 -0.00074848199598 -0.0013684353889 0.00053688029865 -0.0011746466401 -0.00055820813422 
0.00020886494965 -0.00091491911355 -5.4007847485e-05 0.00046166822064 -0.0014659466417 0.00014142615702 -2.5113135958e-05 -0.0012933476982 -7.5724096763e-06 
9.2366465011e-05 -0.0010373029924 -6.7127712069e-06 -5.278018348e-05 -0.0015811669636 -5.2878038628e-05 0.00045830713773 -0.0013134615181 0.00014323944401 
-7.7752109267e-05 -0.0019134097402 -0.00016713269243 0.0043073740768 -0.0015482239333 0.00090633958832 -9.4047650406e-05 -0.0020307411756 -0.00040463358911 
6.787334525e-05 -0.0017500884921 1.590549035e-05 0.00030764028049 -0.001229018753 8.5705588838e-05 0.00041306824015 -0.0011642062465 0.00024757730115 
-8.9086426369e-05 -0.0012603154744 0.00013385236917 0.00032744568132 -0.00095035895482 7.6409856286e-05 3.3245974777e-05 -0.0010671770931 4.5706807251e-05 