# vtk DataFile Version 4.1
vtk output
ASCII
DATASET UNSTRUCTURED_GRID
POINTS 1274 float
0.513116 0.553544 0.0379543 0.469602 0.650984 0.105211 0.48806 0.597553 0.268458 
0.494846 0.587347 0.098726 0.423737 0.755797 0.0323157 0.424451 0.768453 0.119716 
0.475623 0.637286 0.21293 0.459533 0.669885 0.268648 0.394079 0.844743 0.0588747 
0.398431 0.812691 0.1649 0.446007 0.699095 0.214858 0.432875 0.738648 0.265757 
0.363007 0.902378 0.0319696 0.34379 0.968117 0.0520771 0.381335 0.878386 0.146405 
0.394929 0.844099 0.231818 0.345448 0.957305 0.25998 0.314077 1.03894 0.0387204 
0.390694 0.91359 0.0865695 0.447922 0.898956 0.11012 0.332309 0.996014 0.130026 
0.408846 0.914913 0.21847 0.310398 1.03778 0.265122 0.352031 0.929436 0.18771 
0.281652 1.10175 0.0485987 0.32807 0.987585 0.200748 0.286583 1.10829 0.260298 
0.257813 1.16229 0.0336643 0.35724 1.11548 0.103826 0.301905 1.06885 0.10932 
0.289788 1.25158 0.0382187 0.30292 1.04525 0.200292 0.283613 1.10038 0.172346 
0.333289 1.25524 0.0925164 0.385099 1.15755 0.0376349 0.275629 1.14827 0.110225 
0.42167 1.14969 0.106384 0.260762 1.15037 0.20851 0.340072 1.10681 0.21128 
0.218678 1.25616 0.0332148 0.320105 1.18575 0.0541646 0.319595 1.15662 0.173657 
0.244804 1.19888 0.164506 0.287434 1.18301 0.26484 0.239134 1.22198 0.0935853 
0.372178 1.23136 0.0356631 0.236547 1.23023 0.236392 0.215783 1.25651 0.14955 
0.540948 0.470252 0.0302073 0.611637 0.295399 0.0942332 0.595604 0.358567 0.121807 
0.596914 0.347619 0.198048 0.576146 0.388744 0.2665 0.61027 0.313973 0.262145 
0.540868 0.469599 0.209718 0.508791 0.55764 0.218708 0.603457 0.328746 0.0358989 
0.566615 0.41766 0.159167 0.48405 0.623937 0.0378766 0.609046 0.474839 0.046987 
0.546033 0.474862 0.0985048 0.549594 0.448075 0.268476 0.565181 0.571569 0.26277 
0.527495 0.512264 0.159564 0.550807 0.668544 0.0308613 0.445404 0.711436 0.0787597 
0.517539 0.697751 0.106457 0.471672 0.753302 0.178271 0.551316 0.547988 0.101692 
0.523102 0.658212 0.266703 0.446323 0.697003 0.14582 0.415019 0.777407 0.214464 
0.501029 0.680756 0.169836 0.554669 0.577219 0.168268 0.494189 0.78001 0.0921945 
0.535628 0.760401 0.146359 0.459091 0.814543 0.0363743 0.508419 0.724306 0.0397537 
0.484488 0.817759 0.150777 0.437009 0.8357 0.113036 0.364639 0.893947 0.269731 
0.499417 0.769328 0.260789 0.538764 0.617372 0.219138 0.563403 0.747597 0.220251 
0.467927 0.81552 0.213629 0.506922 0.705685 0.226434 0.459923 0.889249 0.0399623 
0.520412 0.853553 0.0354214 0.535817 0.79091 0.0326235 0.454034 0.875613 0.177648 
0.495454 0.849765 0.095173 0.464533 0.870009 0.260663 0.438671 0.803549 0.269008 
0.417164 0.951773 0.0373636 0.373542 1.08935 0.0325885 0.466051 1.00452 0.0331266 
0.400676 0.996602 0.0950681 0.415895 0.947987 0.150936 0.468543 0.964292 0.0913834 
0.485382 0.940755 0.262666 0.419653 0.972413 0.261479 0.535117 0.982998 0.2689 
0.460526 0.951453 0.203278 0.383803 1.02417 0.032396 0.36552 1.05435 0.0848565 
0.463381 1.03217 0.0902298 0.362834 1.06292 0.158344 0.395557 1.00459 0.196837 
0.441739 1.05099 0.264238 0.377173 1.02903 0.267487 0.483235 1.00323 0.23653 
0.457229 1.13592 0.0385422 0.470509 1.08308 0.123105 0.427439 1.0419 0.139083 
0.360913 1.09023 0.269156 0.526778 1.17838 0.175602 0.489829 1.10202 0.267785 
0.407782 1.08817 0.213355 0.429784 1.13352 0.264219 0.445448 1.12021 0.166919 
0.358826 1.16035 0.260112 0.511132 1.18698 0.0383318 0.498711 1.14673 0.120098 
0.43713 1.20568 0.0341932 0.369897 1.20148 0.100975 0.381228 1.13325 0.166036 
0.338878 1.23672 0.260951 0.453309 1.16747 0.207793 0.402634 1.20643 0.221619 
0.46932 1.19084 0.266121 0.487485 1.25493 0.0362705 0.312704 1.21226 0.137342 
0.460475 1.24894 0.225665 0.300341 1.21274 0.203973 0.474878 1.21169 0.169835 
0.3734 1.22821 0.163627 0.639474 0.231791 0.179637 0.564038 0.413003 0.0316586 
0.660068 0.192861 0.0570765 0.660695 0.287809 0.213357 0.640257 0.240907 0.263509 
0.668862 0.174646 0.207388 0.642528 0.223921 0.115721 0.631324 0.405159 0.0363463 
0.592054 0.422552 0.0893473 0.52706 0.509707 0.265847 0.605884 0.486394 0.263007 
0.617308 0.291283 0.159055 0.639467 0.377317 0.246429 0.613872 0.459963 0.13603 
0.588249 0.546349 0.0375218 0.660607 0.423052 0.101309 0.534373 0.635851 0.131509 
0.605167 0.528385 0.146868 0.57622 0.524025 0.211882 0.592783 0.433159 0.220374 
0.613477 0.62341 0.266298 0.603762 0.717457 0.0390314 0.555322 0.609665 0.064577 
0.569896 0.733335 0.0989329 0.566652 0.697345 0.15797 0.600038 0.709517 0.268227 
0.592029 0.633898 0.174985 0.644863 0.639529 0.211361 0.571801 0.671743 0.224497 
0.597383 0.757974 0.159974 0.587229 0.666219 0.0957489 0.639211 0.787015 0.0390311 
0.561881 0.795738 0.0909533 0.54114 0.813514 0.189967 0.545396 0.831563 0.261832 
0.6164 0.773937 0.265252 0.5155 0.872539 0.211215 0.625581 0.70818 0.201434 
0.600437 0.820331 0.221434 0.585009 0.836899 0.0347553 0.561028 0.859179 0.0929715 
0.565954 0.908704 0.0397016 0.504005 0.942936 0.0315439 0.55219 0.908983 0.260437 
0.598475 0.966513 0.265548 0.52863 0.862205 0.146368 0.506023 0.922435 0.171407 
0.535749 1.00233 0.0512813 0.522852 0.915157 0.105216 0.473173 1.05848 0.190184 
0.469016 0.995065 0.155174 0.537688 0.988142 0.137601 0.518261 1.04589 0.269178 
0.570612 0.944041 0.192189 0.436573 1.06567 0.0348099 0.53866 1.12358 0.0335697 
0.573233 1.06383 0.0351738 0.50417 1.06378 0.0328709 0.552251 1.10711 0.0955272 
0.522905 1.04957 0.104357 0.542637 1.0078 0.209059 0.503121 1.12479 0.204804 
0.538904 1.23332 0.0892197 0.574504 1.21087 0.0322881 0.564109 1.17592 0.122875 
0.522836 1.08995 0.153047 0.605079 1.08645 0.268672 0.54037 1.23709 0.15929 
0.534109 1.21092 0.237644 0.567134 1.12889 0.179827 0.556981 1.0723 0.214745 
0.553626 1.13577 0.259467 0.640151 1.20658 0.042699 0.622313 1.20881 0.110085 
0.465193 1.214 0.100805 0.647638 1.23494 0.221437 0.595624 1.19759 0.186292 
0.77323 1.16652 0.205808 0.678945 0.13098 0.0400518 0.693164 0.119857 0.11392 
0.721562 0.0322015 0.193185 0.682151 0.133925 0.26551 0.69771 0.0948294 0.182678 
0.636851 0.26205 0.038733 0.696451 0.315309 0.0396632 0.702014 0.225482 0.150709 
0.704572 0.265991 0.267352 0.640155 0.405638 0.173691 0.695451 0.199609 0.267448 
0.678848 0.326738 0.266697 0.663252 0.336109 0.138006 0.679055 0.457695 0.0410826 
0.657087 0.49418 0.0969049 0.651559 0.355318 0.0775585 0.68554 0.466431 0.157641 
0.650177 0.460535 0.216885 0.682111 0.278481 0.104431 0.729445 0.411923 0.197847 
0.690862 0.353784 0.201455 0.611878 0.643804 0.0351633 0.660847 0.52468 0.0349362 
0.635679 0.558126 0.089252 0.595615 0.60007 0.119884 0.648277 0.605942 0.156764 
0.664093 0.682861 0.262131 0.63895 0.545162 0.269081 0.687461 0.581519 0.207324 
0.617394 0.577825 0.209305 0.673885 0.545906 0.150192 0.678406 0.515298 0.206385 
0.629664 0.714196 0.122732 0.658402 0.653067 0.0925125 0.697624 0.57225 0.097619 
0.709151 0.626118 0.140359 0.717067 0.646685 0.206504 0.661584 0.821984 0.268703 
0.665754 0.671143 0.160257 0.624359 0.801712 0.117099 0.647974 0.875264 0.0391001 
0.689563 0.760317 0.0793672 0.708233 0.700874 0.0860014 0.680844 0.762207 0.148969 
0.637714 0.774371 0.203141 0.69708 0.715283 0.205101 0.61355 0.866597 0.265677 
0.582541 0.871031 0.182812 0.614943 0.967999 0.0372507 0.668531 0.983622 0.0765369 
0.630985 0.867764 0.10638 0.644166 0.926043 0.0883243 0.587059 0.90672 0.125112 
0.610102 0.966074 0.138893 0.63517 0.98347 0.20986 0.678004 0.847801 0.147854 
0.635602 0.92133 0.233629 0.64345 0.863295 0.207637 0.632491 0.915042 0.169033 
0.630953 1.10709 0.0300622 0.642163 1.03852 0.0394219 0.694629 1.09095 0.0358781 
0.574963 0.955571 0.0906095 0.594962 1.01974 0.0955162 0.667639 1.04152 0.115456 
0.578318 1.02964 0.260409 0.614117 1.02399 0.161865 0.672426 1.02999 0.183781 
0.616482 1.08864 0.0907911 0.622909 1.14226 0.138182 0.697089 1.16386 0.0370852 
0.595381 1.1528 0.0646365 0.582094 1.07604 0.146037 0.624109 1.05492 0.217003 
0.741674 1.13062 0.0834295 0.636523 1.13179 0.223608 0.661221 1.09114 0.167644 
0.603606 1.19409 0.26361 0.749668 1.21091 0.033559 0.791749 1.18014 0.101306 
0.690206 1.16853 0.106142 0.673278 1.19718 0.168538 0.677325 1.18629 0.261061 
0.721655 0.0829169 0.0341654 0.753513 0.121276 0.0768918 0.717992 0.0494991 0.119436 
0.783982 0.0580335 0.126677 0.723573 0.0411821 0.262456 0.735622 0.104994 0.243484 
0.707658 0.241564 0.0350601 0.750392 0.180994 0.0391991 0.768245 0.266013 0.0304518 
0.736193 0.178644 0.110585 0.727257 0.156339 0.172466 0.75622 0.166836 0.263423 
0.773828 0.229592 0.154885 0.769802 0.24204 0.262806 0.731878 0.209212 0.212733 
0.703369 0.390988 0.0363936 0.765939 0.327824 0.0314096 0.721076 0.333255 0.103432 
0.747531 0.251403 0.0925261 0.733656 0.417747 0.0925204 0.764862 0.373288 0.127846 
0.70404 0.387385 0.141264 0.748264 0.319491 0.263464 0.733503 0.281093 0.1973 
0.697104 0.420525 0.260496 0.725751 0.512101 0.0879761 0.751339 0.463379 0.0378105 
0.796369 0.483344 0.0865817 0.755104 0.468418 0.136065 0.790663 0.418741 0.170917 
0.675673 0.492453 0.26665 0.804325 0.511743 0.264174 0.773083 0.399146 0.260576 
0.741469 0.48065 0.245851 0.7183 0.547538 0.263651 0.67024 0.598021 0.0391192 
0.693483 0.664311 0.031532 0.737888 0.531896 0.176291 0.761689 0.579988 0.122246 
0.678923 0.612824 0.267401 0.753198 0.584992 0.216439 0.743495 0.621154 0.267491 
0.673475 0.723949 0.0315773 0.747675 0.747212 0.111963 0.75784 0.690898 0.0385822 
0.728174 0.754384 0.0312107 0.747776 0.654612 0.0972048 0.74029 0.692188 0.261129 
0.688576 0.815467 0.208815 0.727574 0.690947 0.147318 0.751877 0.744124 0.178763 
0.694512 0.743601 0.269539 0.702135 0.932886 0.0399801 0.717736 0.851738 0.0346095 
0.68173 0.823441 0.0843587 0.69434 0.886702 0.0951651 0.740334 0.808906 0.159184 
0.738653 0.836302 0.260085 0.733027 0.773244 0.23001 0.681214 0.884671 0.265523 
0.712698 0.876533 0.207843 0.688104 0.949787 0.268912 0.717835 1.01881 0.0398208 
0.72588 1.06743 0.089412 0.728469 0.950397 0.107479 0.689491 0.945245 0.205816 
0.672113 0.974826 0.13891 0.692717 0.916969 0.150123 0.73107 1.00784 0.154906 
[...]
POINT_DATA 1274
FIELD FieldData 10
VELOCITY 3 1274 double
0.00052609123128 -0.0012090366874 1.6596013549e-05 0.0003016405313 -0.00064598809257 -0.00035837462002 0.00069183325258 -0.0016927775895 8.1525485003e-07 
0.00050682045784 -0.00030785591022 -0.0013325518636 0.00057418590905 -0.00087504451073 -3.7261497571e-05 0.0004527477686 -0.00070045642836 0.00063890282112 
0.00032611435777 -0.00098005096726 0.00016543510077 0.00013743750238 -0.00060474539047 2.7264518794e-05 0.00038735079674 -0.00092999170151 -5.8457028719e-07 
0.00019891378072 -0.00054671325954 0.00047941608191 0.00076191133785 -0.0020923472606 -0.0017343622489 0.00046429827328 -0.0011963485374 2.0426487656e-05 
0.00028049299121 -0.00075492078782 6.5582236136e-06 0.00044453996368 -0.0011304098832 0.00030049300662 0.00022325023603 -0.00065739396997 1.8611269262e-05 
0.00038274472738 -0.0009365359664 -0.00034833080831 0.00045720674611 -0.0011547504435 -0.00027395675145 0.00050269816391 -0.0012156216198 2.8635660157e-05 
0.00064441014032 -0.0010458232309 -9.5689577464e-05 0.00094389658846 -0.00075325834642 -0.00012055741827 0.00038566406909 -0.00090599105755 5.5688623519e-05 
0.00017171742704 -0.00091358307859 6.7266288632e-05 0.0002572643437 -0.00058321985791 -0.00019524077389 0.00022876118765 -0.00057028927739 -9.2604358791e-05 
0.00052970960281 -0.0012733481124 0.00040741988356 0.00032677229619 -0.00060513766609 7.6229170193e-05 0.00020635830342 -0.0005669547085 3.6504758721e-05 
0.00047677960736 -0.0011368330325 9.0643560771e-06 0.00038391935943 -0.00088378343671 -0.00065027117989 0.00029999461261 -0.00065960684161 -0.00033755964627 
0.00010280252575 -0.0013979245952 1.0917574506e-05 0.00020699222546 -0.00066287906606 -2.1831168201e-05 0.00027628646226 -0.00066130802687 -5.2592711453e-05 
0.00036612598905 -0.00095751396674 -0.00023899366504 0.00074161840266 -0.001051128137 0.00041836776915 0.00029049959408 -0.00070463295715 7.3017712129e-06 
0.00040427625542 -0.00081212056664 -0.00015483024793 0.00028659452026 -0.00064387917993 -8.8877231422e-05 0.0001353166045 -0.00077228092344 -6.4444277806e-05 
0.00019008551906 -0.00042547347076 1.1221375345e-06 0.00056002110378 -0.0012768965858 -0.00027653624537 0.00031252284342 -0.00067180594292 -9.2090681613e-05 
0.00027401528885 -0.00065448556199 -0.00010257643466 -2.1655972704e-05 -0.0005676386727 -1.6765172269e-05 0.00030829195827 -0.00073121991993 -0.00022291512686 
0.00061527118964 -0.0012005815461 -1.0060018339e-05 0.00016693481116 -0.00038422258997 -9.6646271937e-05 0.00028629173825 -0.00068937555476 -0.00026036665009 
-0.00018494203867 0.00067012250673 -1.6891430324e-06 -0.0012013937655 -0.00011123626047 -0.00071060700698 7.2647144951e-05 -0.00028366629941 0.00062477821702 
0.00012092961383 -0.00047231762016 0.00054576865912 0.00033817409381 -0.0011056970348 -0.0015380411595 0.00072617769807 -0.0018497866303 -0.00033668572297 
0.00014278921287 -0.00056215332793 2.4537244323e-05 0.0008471330347 -0.0013680795368 -0.00075711449751 0.00011404940392 -0.00030291677893 -6.6787703678e-06 
-5.6357657958e-06 0.00045412192942 -0.00046111228924 7.624476797e-05 -0.0004889342244 -2.8923408427e-06 -0.0016182871692 -0.0015357257548 -0.0019453777979 
8.9370549707e-05 -0.00038893299696 -2.9446745405e-05 0.00099927826818 -0.00034158748493 0.00044949690395 4.3978837378e-05 -0.00097283171002 1.0041992407e-05 
0.00012543712533 -0.00061298803749 0.00021239912692 -0.00023075821031 -0.0010019836735 0.00033975901044 5.1734520698e-05 -5.6536097643e-05 0.00036104113984 
0.00022058334183 -0.00062186448197 -0.0001016003371 0.0002438771916 -0.00065201617659 2.1506438159e-05 0.0001520624064 -0.00043245437461 0.00084598017275 
-0.0004588251886 -0.0014903697084 -0.00018045976568 0.00025890097607 -0.00053843534482 -0.00042375578513 0.00027355033858 -0.0010961850835 4.7421998393e-05 
6.2747030501e-05 -0.00075275944761 -0.00025004819965 0.00028655344474 -0.00049917076463 -0.00069640180481 8.262745768e-05 -0.00058378357083 -0.0001062523946 
0.00070173265699 -0.0015184860596 0.00058278157132 0.00043169572158 -0.00077374831545 4.2858231744e-05 0.0003738058387 -0.00099588560627 -8.8278421073e-05 
0.00047634307769 -0.00099014791535 0.00036850785406 0.00010606227867 -0.00057536572005 -0.00011052078112 0.00053293501571 -0.0010974346487 5.1004099173e-05 
9.9600512388e-05 -0.00050850343644 -0.00026997541693 0.00046301224031 -0.0010656175025 0.00024320089755 0.00051643952885 -0.00147579079 0.00031494333808 
0.00045140624459 -0.001134560916 0.00036330708738 0.00029154359511 -0.00077743709541 8.5705362382e-05 0.00012541908487 -0.00080813027472 -0.00025487818481 
4.4082773475e-05 -0.001086201278 0.00022060094186 0.00024712138082 -0.00077115572575 4.1375741696e-06 0.00010467438483 -0.00085918409792 -0.00012990970911 
0.00059775026341 -0.00093471653474 -9.4954867585e-05 -0.00057587613884 -0.00083352348608 -1.1611305079e-05 -5.3577287053e-06 -0.0010644587131 9.87369536e-05 
0.00074041920773 -0.00049954944205 9.6760665796e-05 0.00017982745341 -0.00094849542592 -4.3154942628e-05 -0.00010798823673 -0.00095618674964 -6.5826661554e-08 
0.00011526447017 -0.0010516433249 0.00022900746354 0.00095779448334 -0.00095717431158 8.5689087382e-05 0.00056191539851 -0.00051859237982 0.0002782642555 
-7.0631769899e-05 -0.00099482125495 0.00052841250041 0.00018897665825 -0.00069035161728 -0.00016784974492 0.00017581118593 -0.0012257947492 1.3821094972e-07 
0.00095357523034 -0.0015335629711 -1.9751501881e-06 0.00029658782074 -0.0011274924091 1.4269339752e-05 0.00034499227702 -0.0010256392524 1.8399615689e-05 
-0.00018479635419 -0.00068732126675 -6.0455879975e-05 0.00026690537631 -0.00082074420283 -8.3949520359e-05 0.00025290573371 -0.00082021046121 -2.889674207e-05 
0.00029405948464 -0.00060593876022 -2.4944515167e-05 0.0001649062614 -0.00081791447468 0.00032401530061 -1.7638768222e-05 -0.0011422020503 0.00035696366646 
0.00076931985149 -0.001007251374 -0.00014564257143 -5.8199034752e-05 -0.00071716383563 -0.00014422592558 0.00036783087572 -0.00092429869945 0.00043059978231 
-6.6836284585e-05 -0.00083286703449 -9.9801469507e-06 0.00056561447131 -0.00079237013765 0.00028933057607 0.00022205647124 -0.0010103373832 6.5338211198e-05 
-0.00013609947013 -0.00073922450181 0.00019814659936 0.0003780678011 -0.00073976329858 -2.8375920342e-05 0.00022187411927 -0.00083887345593 0.00016585966967 
-0.00016907330882 -0.00083903165456 -4.9720630708e-05 0.00034423608646 -0.00052684725399 1.1028787306e-05 0.00032548799988 -0.00098104992525 0.00056644462377 
0.00063362135909 -0.0010154214723 1.6292601345e-06 0.00036517956449 -0.00094889394152 -8.0564066048e-05 0.00019362017002 -0.00074908763803 -0.00048498887805 
7.7604806821e-05 -0.00078191630588 1.4828401823e-06 5.5057905882e-05 -0.00084308391077 0.00011368305019 0.00041433612345 -0.00071981491147 0.00074110545882 
0.00025973429568 -0.00067509890545 8.9396709125e-06 0.00022861587606 -0.000576963023 -1.7659885033e-05 0.00024258459306 -0.00067434069711 -2.4299743963e-05 
0.00040060201038 -0.00070399985174 -0.0001754875439 7.3970925204e-05 -0.00075002453214 -3.9285415801e-05 0.00050525205404 -0.0010211839901 8.1078314671e-05 
0.00036687390602 -0.0017690812977 0.00030358032434 -0.00015502627617 0.0003562631411 0.00044353966061 -9.168421168e-05 0.00044615952489 -0.00014648723161 
3.6202434305e-05 -0.00016922673309 0.00071509321079 -0.00065762613042 -0.00064372826349 -0.00025323329503 -9.5564445739e-05 0.00059274242757 0.00066655626902 
-7.6228067833e-05 0.00016615441686 0.00020530951276 -0.00070320326729 0.0013969347689 0.00043039480247 -0.0019610949629 -0.0020374946587 0.00026678325892 
0.00082481292385 6.476081016e-05 -0.00011890034202 -0.00027946214102 -0.00062596056879 -2.8889005045e-05 0.00033064740803 -0.00076694262096 0.00032140652282 
0.00014807665787 0.0009864157732 -0.00048773871131 0.00071334589315 -0.00053205028522 0.001565096183 0.00047692926661 -0.00082686051218 0.00065464944659 
0.00057038917159 -0.00062981715831 -1.6269711065e-05 0.00057624492414 -0.0004698445561 -0.00067265706045 0.00015835445998 -0.00063037401153 -1.7516886048e-05 
0.00093939262703 -0.00042416086649 -0.00053675768043 0.00039508061306 -0.00074276534486 -0.00016520485398 0.00025880376868 -0.0001823406963 0.0004231771866 
-0.00031179351445 -0.00042946859911 2.9868469019e-05 -0.00025012651573 -0.0010610044125 -0.00018109971071 0.00021422858841 -0.00099090139287 -0.00049001916193 
0.00094115643416 -0.00063829283634 0.0002132873501 0.00063484327625 -0.001239555877 0.00022148761033 0.00019102779611 -0.0010151916254 6.8514650378e-05 
0.00045891752246 -0.00068263665437 0.00086862339129 0.00086353580266 -0.0015937027319 0.00039298519046 -0.00024318475597 -0.00066184287228 -3.2335400266e-05 
-0.0012379769084 0.00038675081111 -0.00025274869189 0.00024548895164 -2.2457178651e-05 -0.00037186805693 6.5622601237e-05 -0.00092342674656 -4.8768109678e-05 
0.00029487522674 -0.0016427311436 6.6240027314e-05 -0.00063324802258 -0.00064236256663 -4.8045915187e-05 0.00017735714589 -0.00069707279863 -6.3142772099e-05 
-0.00010507610743 -0.0004037006843 -9.9846324796e-06 -6.2914078723e-05 -0.00085945058313 0.00043286332285 0.00019377900914 -0.00071103841132 0.00048680828199 
-6.8922963734e-06 -0.0013673174277 -0.00014110522218 0.00010301583427 -0.00077651405025 0.00024603910619 0.00020556917171 -0.0016130551699 0.00031075855183 
-0.00021304871153 -0.00078097941365 -0.00012423772658 -7.0001767312e-05 -0.00057230139143 0.00015255691187 0.00024863616932 -0.00075697026484 -2.6378451824e-05 
0.00026196905294 -0.0007916304174 0.00014490702473 5.0591081257e-05 -0.00067180211334 -3.7674659309e-05 0.00048148613841 -0.0013204339716 -0.00073294555162 
0.00036282270247 -0.00087442335873 0.00024018680442 0.00012520971181 -0.001257637585 -0.0009199330462 -2.9647812559e-05 -0.00082600407916 0.00060900937908 
0.00040860687194 -0.00058463534871 0.0003951347748 0.00032400440759 -0.00049709589791 -0.0002108130881 0.00027530688584 -0.0010106739751 -4.0960890557e-06 
1.7183075923e-05 -0.00048299418198 7.9670719866e-05 0.00019282183013 -0.00084530792427 9.9205127121e-05 8.4429712958e-06 -0.0006543678847 -9.1019093744e-06 
0.0002614023886 -0.00089604662977 -5.8853964015e-06 9.7182579664e-05 -0.0010560326269 4.435009946e-06 0.00019693118698 -0.00067166453687 -0.00017457798361 
-0.00019594131105 -0.00065671827882 -0.00029649452506 -0.00025900714594 -0.00053526763734 9.6426271022e-06 4.8521492524e-05 -0.00077171894411 7.4919702763e-06 
0.00036539485191 -0.00068558562403 5.0360352944e-05 0.0003744264568 -0.00062391651436 -9.8811365094e-06 0.00030879810773 -0.0008442480264 -0.00016193453995 
4.8467345543e-05 -0.0014852495335 0.00032384771356 0.00026657895715 -0.00067586836963 6.6864305195e-05 0.00019387964814 -0.00081628618268 5.2546394947e-05 
0.00017762669563 -0.00037147601293 0.00011468912541 0.00045431182634 -0.0010084748008 -0.00018402828159 8.8495450182e-05 -0.0006340472865 0.00030474296008 
0.00011992925045 -0.00083088920988 -3.4942564983e-05 0.00042272487774 -0.00084428934485 -0.00036440872061 0.00023717476626 -0.0008417823149 -0.00039886227834 
0.00043039367316 -0.00088104887911 9.0902978662e-05 0.00016931867653 -0.00089620599604 -3.6437712808e-05 0.00013934563818 -0.00093125548047 -3.257614566e-05 
1.3447778109e-05 -0.0013908046542 -9.6595597244e-05 -2.8007818193e-05 1.078410337e-05 8.0866995763e-05 -5.3406378453e-05 -7.6330465765e-06 0.0012192301482 
-3.085823887e-05 5.3461548162e-05 0.00064333651117 -4.3094122738e-05 0.00020395931067 -9.6035264126e-05 -2.1392452935e-05 0.0001108072459 0.0010815797741 
-0.0001317027927 -0.00043235451526 2.5415833234e-05 -0.00062408865333 -0.00027561518034 -0.00043457660979 -0.00036448256558 0.00023997992519 0.00050163619331 
0.00014732953055 -0.00034933408797 -0.00033135645576 -1.2660227514e-07 -0.00061064117114 -0.00012575399766 -6.1748019498e-05 8.7029978308e-06 -1.2412553971e-05 
0.0023991580983 0.00011633816856 -4.6006257809e-05 -0.00085509714161 -0.00069988899479 0.00047295234485 -0.0014768705506 -0.00059245731913 5.4842359767e-05 
-0.0036525819875 -0.0011957118662 -0.0004617365725 0.00013139820772 -0.0013466845203 -4.6761722288e-05 -0.00051200695616 -0.00028021179837 -0.00060191570813 
0.00060062911893 -0.0015310216519 -0.00010565041382 0.0014944372619 0.00035536525081 0.00046451678596 0.00038613384657 -0.00016105868398 0.00028915343333 
0.00036023691972 0.00021856490044 0.00015870782838 9.0582307331e-05 -0.0011072531679 8.5874834247e-05 -0.0011752192389 -0.0006434788723 -0.00051679533455 
0.00023863545728 0.00019626001047 0.00025800892737 0.00018452499441 0.00089501898154 5.487838897e-05 0.00050430291726 -0.0014038666874 0.00019277735623 
0.00032428604581 -0.00072996429004 -1.4473043686e-05 0.00074296615852 -0.00086438741897 -2.7690549973e-06 0.00043715280497 -0.00094631158502 0.00010340371959 
0.0003946746367 -0.00056970048193 0.00051395553149 0.00097790312723 -0.00011092945825 0.00080936494432 -0.00082529752297 -0.0015081461133 -0.00025003954077 
0.00086891499195 -0.00081263815236 0.00022818954123 -0.0001946991334 -0.0014082845104 0.00060718710448 0.000113353945 -0.001794802398 -0.00045380332214 
0.00028506555121 -0.00099041002646 0.00054889241208 -0.00049399642871 -0.00046647136099 -0.00025268168459 0.00050739904684 -0.0011524795517 -0.00045292104826 
0.00020563364742 -0.0014246082393 0.00045784147539 0.00044511354479 -0.0010620748787 0.00048759938486 0.00024337582948 -0.00099324394837 -3.4694290249e-05 
2.3076321135e-05 -0.0017424306205 -4.183289602e-05 -9.1005396826e-05 -0.0013366319375 0.0006795390906 0.00036527757383 -1.3220164152e-06 -1.9406721458e-05 
0.0006691249526 -0.0020069605486 0.00019754577183 9.6330533189e-05 -0.0010895998588 -0.00027615835885 -0.0001975389907 -0.0014787480029 -5.5593634197e-06 
-0.00023899975668 -0.00087774939005 0.00089732456202 3.6046810879e-05 -0.0010048794658 7.9829408927e-05 -7.9893502237e-05 -0.00080637092531 -4.0019430362e-06 
0.00028114982771 -0.00067951939817 -1.1775519555e-05 0.00025139212252 -0.00084239923622 -9.2650701384e-05 -0.0001324302042 -0.0012906154184 -0.00024544261975 
1.3308901067e-05 -0.00091034974549 4.6028738005e-05 0.0004659906971 -0.0006777894867 0.00013196539425 0.00047501080434 -0.0010666670212 -0.00015801873734 
0.0001697394845 -0.0009201625616 -0.00023324920077 -0.00014251485846 -0.0013143047683 6.062619709e-06 -0.00044082867136 -0.00052542351093 -0.0002409442075 
0.00067450455795 -0.00040511183416 2.6405366815e-05 0.00024696028385 -0.0010509565342 -0.00042829210739 0.00035260781946 -0.0011369757257 -4.2210226611e-05 
0.00022870516619 -0.00070786749035 -8.8168205456e-05 0.0006335092254 -0.00087604182615 -5.7858035601e-05 0.00022017859847 -0.00066839539102 -0.00021294444706 
0.00031522268635 -0.00077187112264 -2.3018726306e-05 0.00027507255689 -0.0009346691492 4.9249049621e-05 7.8626224146e-05 -0.00083349069763 -0.00018084507884 
1.3143666601e-05 -0.00097091618485 -0.00014941772324 0.00037420733925 -0.00071899082936 -0.0001450834502 0.00022114779504 -0.0011814654739 4.2832662331e-05 
0.00033000118092 -0.00067592589108 -0.00014850881711 3.0548390583e-06 -0.0011401812296 -0.00025271014513 4.854605143e-05 -0.0008417125107 3.2981810478e-05 
0.0003579252642 -0.0009730627527 7.4958132509e-05 0.00030417544708 -0.00076135332121 -2.4947959712e-05 0.00013082661956 -0.00082769126292 -6.5332525016e-06 
0.00015947561271 -0.00074027614356 1.1400373323e-05 0.0004552614865 -0.0014143175278 -2.435909064e-05 0.00083304654303 -0.0015219951974 0.00033302245709 
0.0004856114233 -0.00067919899852 -7.6720379971e-06 0.00017146780431 -0.0010748399532 8.5610423236e-05 0.00011526362643 -0.0007826650629 0.00019193165288 
0.00041711288516 0.00030081546638 -3.2084574838e-05 0.0003596046073 -0.00079051705852 0.00083590723473 0.00017785140488 -0.00064915878609 0.00063892473015 
-0.00066442452949 -0.00051809065532 0.0015039399453 0.00014349534738 -0.00023828211239 -0.00043515571173 0.00050266519909 0.00066734056952 0.00050331093086 
0.00013861796768 -0.00014331477958 0.0015001238983 -0.0010960033986 -0.0010931216488 -0.00049284173303 0.00010035709575 0.0016274148724 -0.0010330902116 
-0.00028387881482 -3.3262456742e-05 0.00017579098513 -0.00049972183492 6.0380024799e-05 -0.00060492581237 -0.00033196119185 -0.00056550458201 3.055850378e-05 
-0.00022588564689 -0.00026778571783 -0.00030348077455 0.00011870249225 -0.00084723984611 0.00037590752798 2.9303085083e-07 -0.00033235136558 -2.3149250468e-05 
0.00049984733212 -0.00020978907946 -8.3086471933e-05 0.00067659189096 -2.6935739712e-05 0.00057140767686 0.0005965481825 -0.0001026860234 -0.00013931220486 
-2.9153406842e-05 -0.00076534494239 9.304289459e-05 0.00049475513555 -0.00054835850936 -5.8361127871e-05 0.00021921210209 -0.00023830065942 0.00023711924119 
0.00014214194617 0.00019164246752 0.00051799220328 0.00045686481867 -0.00058136195916 -1.5916387992e-05 -0.0001903231224 -0.00016175040917 0.00094967828227 
-0.00018168420758 0.00067667037789 -0.00029214369881 -0.0014042706822 -0.0012826960556 0.0011056812351 -0.0013049022118 -0.00042206540353 -0.00010279283213 
-0.0016158942729 -0.00012855523167 -0.00051488799127 -0.00016586665531 -0.00073507997629 0.0010351968285 0.00039141231779 -0.00041009364183 0.00033534991797 
0.00095106443717 3.6722670254e-05 1.6447264585e-05 3.7595469328e-05 -0.00016788934863 0.00010467551871 -0.00065145394185 -0.0012495382517 2.8277808118e-05 
0.00048567565756 -0.0001467272693 -0.00055179490441 -0.00036930408554 -0.00050692604412 -3.8482677382e-07 0.0010499558414 -0.00036893496659 3.944609948e-06 
-0.00065721570193 -0.00037420388644 0.0001235575482 0.00051337908859 -0.00091166198444 0.00062163239888 0.00030756265495 -0.00038636903821 0.00081800285028 
-0.00027103077512 -0.00084523205758 -6.7945079791e-05 0.00033251912863 -0.00047884000321 4.5075229181e-05 -0.00028509359751 -0.0010565343649 9.8655517626e-05 
1.4844473323e-06 -4.7866899669e-05 -0.00074507402343 -0.00014549153295 -0.00095242041196 4.2520596632e-05 -0.00060662804459 -0.00076070935434 0.00014324386736 
0.00024990516588 0.00058276736919 -1.3056495417e-05 -0.00085310877199 -0.00094453176883 -0.00017412974056 0.00048456496496 -0.00077643209808 -0.0001605339326 
0.00035799259583 -0.00038317454293 0.00010490773719 0.000221206293 -0.00075791307101 0.00025485812636 0.00022585795249 -0.00074806119738 0.00013314666943 
0.000235323416 -0.00069453440209 -1.2977455734e-05 6.1673206543e-05 -0.00082332121146 -4.5886943322e-05 9.2129358287e-05 -0.001063007408 7.6377228262e-05 
0.00019006845 -0.0010232498474 -1.0917233794e-05 -0.00025608428894 -0.0008787968074 -0.00016546754902 0.00082301761229 -0.00069337509584 -0.00019589833149 
0.00038425926303 -0.0013661869368 -1.1227406425e-05 -0.00074365263965 -0.0020387442915 -3.3811214619e-05 -0.00013859541775 -0.00069111695342 0.00041755887307 
-0.00021098006417 -0.0007264772819 0.00084099166298 0.00026832427206 -0.00085119637109 -1.2711646331e-05 0.00018641409018 -0.0012858606378 1.2239715897e-05 
0.00024503847966 -0.00088160282294 -0.00049950548775 0.00033977686936 -0.0012579193463 1.5262301648e-05 -0.00012398835451 -0.0014811171982 5.2966213574e-05 
0.00039731842036 -0.00048115248581 -4.1458113704e-05 -0.00041125022382 -0.00086809704255 -0.00034789115106 0.00039050668954 -0.00099356442697 -0.0003429233771 
0.00028544093002 -0.00077627100294 -2.757978998e-05 0.00029576286149 -0.0014423881822 -1.0404216816e-05 2.3515311853e-06 -0.0012922095671 -0.00028427172892 
0.00038264885771 -0.00096485414112 0.00012157234043 0.00048139232619 -0.0013639647249 3.5532399505e-05 0.00026261307667 -0.0013067501685 -5.8195195892e-05 
0.00031293743885 -0.0015307385606 -0.00015980951724 0.0005581009369 -0.00070487128886 -8.3823754905e-05 3.0529361672e-05 -0.00094665027128 -0.00016137734931 
-0.00013382416106 -0.0014062445994 4.7300413421e-06 0.00051809184233 -0.0010846113748 -0.00027255624577 0.00041446761761 -0.0010679638448 0.00019406436736 