# vtk DataFile Version 4.1
vtk output
ASCII
DATASET UNSTRUCTURED_GRID
POINTS 1274 float
0.512138 0.555902 0.0379512 0.469065 0.652292 0.105448 0.487254 0.599512 0.268458 
0.494307 0.588624 0.0994294 0.423128 0.757274 0.0323137 0.424036 0.769472 0.119119 
0.475168 0.638389 0.213096 0.459771 0.671601 0.268648 0.393097 0.847128 0.0594336 
0.397956 0.813845 0.164138 0.445221 0.701013 0.215235 0.432035 0.740697 0.265756 
0.36214 0.904486 0.0319702 0.342923 0.970218 0.0514837 0.38079 0.879713 0.146333 
0.394196 0.845877 0.231904 0.344692 0.95914 0.260008 0.313173 1.04113 0.0387193 
0.389293 0.915701 0.0868381 0.446802 0.900178 0.110199 0.331547 0.997866 0.129753 
0.408635 0.916551 0.218371 0.309938 1.03889 0.265122 0.351553 0.930598 0.187889 
0.280732 1.10398 0.0482839 0.327552 0.988843 0.200416 0.286123 1.1094 0.260298 
0.257009 1.16425 0.0336644 0.356181 1.11756 0.105277 0.301334 1.07024 0.109652 
0.289527 1.25404 0.0382189 0.302401 1.04651 0.200315 0.283039 1.10177 0.172672 
0.332459 1.2573 0.0929929 0.383705 1.15968 0.0370768 0.275059 1.14966 0.110576 
0.420724 1.15162 0.106651 0.260182 1.15178 0.208811 0.339813 1.10837 0.211488 
0.218331 1.257 0.0332148 0.319031 1.18797 0.0546789 0.319298 1.15812 0.173802 
0.24422 1.2003 0.164818 0.287557 1.18411 0.26484 0.238561 1.22337 0.0939672 
0.370901 1.23359 0.0356631 0.236223 1.23102 0.236667 0.215195 1.25794 0.149903 
0.540305 0.471545 0.0302104 0.611443 0.295871 0.094186 0.595241 0.359461 0.120664 
0.59673 0.348053 0.196821 0.575867 0.389438 0.266499 0.609722 0.315285 0.261441 
0.540365 0.470819 0.209937 0.508268 0.558927 0.219376 0.603263 0.329217 0.0358989 
0.566504 0.417933 0.159197 0.483203 0.625992 0.0391033 0.610045 0.477018 0.0481068 
0.545689 0.475692 0.0985201 0.549307 0.448773 0.268473 0.564882 0.573233 0.262776 
0.527113 0.513193 0.159508 0.550002 0.669907 0.030858 0.444994 0.712434 0.0781945 
0.517296 0.698771 0.105861 0.47085 0.754904 0.17815 0.550564 0.548879 0.100693 
0.523366 0.660061 0.266702 0.445921 0.697973 0.146503 0.41426 0.779249 0.214278 
0.500765 0.682352 0.170621 0.553772 0.578317 0.168519 0.493653 0.782125 0.0917612 
0.53472 0.762314 0.146136 0.457701 0.816477 0.0363747 0.508189 0.726096 0.039754 
0.483976 0.81932 0.150697 0.43603 0.836909 0.113383 0.363885 0.895778 0.269731 
0.498833 0.770834 0.260787 0.538497 0.619032 0.219129 0.562873 0.749088 0.220335 
0.467344 0.817119 0.213526 0.506072 0.707696 0.22709 0.459768 0.891143 0.0402059 
0.520424 0.855727 0.035754 0.535042 0.792918 0.0326224 0.454185 0.877412 0.177797 
0.494301 0.851844 0.095658 0.465542 0.871587 0.260664 0.438224 0.805561 0.269011 
0.416243 0.953123 0.0373629 0.373285 1.09126 0.0325887 0.465342 1.00609 0.0331281 
0.399786 0.998617 0.0945589 0.414619 0.949709 0.150281 0.467265 0.96547 0.0911316 
0.485419 0.942632 0.261372 0.419524 0.973961 0.261479 0.534822 0.985162 0.268901 
0.458973 0.954498 0.202898 0.383217 1.02628 0.0323971 0.365224 1.05687 0.0852549 
0.463344 1.03344 0.0904081 0.3624 1.06443 0.158518 0.395029 1.00598 0.196909 
0.441353 1.05217 0.264238 0.376739 1.03034 0.267469 0.48339 1.00533 0.235785 
0.45581 1.13799 0.0385395 0.47032 1.08442 0.123221 0.426892 1.04346 0.138822 
0.361172 1.09173 0.269156 0.52492 1.18071 0.176356 0.490131 1.10421 0.267878 
0.40796 1.08951 0.213101 0.4296 1.13474 0.26422 0.445247 1.12203 0.166689 
0.35907 1.16185 0.260112 0.510214 1.18852 0.0381891 0.497932 1.14828 0.119329 
0.435801 1.20778 0.0341938 0.36902 1.20348 0.101348 0.380946 1.13469 0.166485 
0.338957 1.23817 0.260952 0.452928 1.16925 0.207633 0.402 1.20809 0.22084 
0.469337 1.19193 0.266121 0.486663 1.25651 0.0362705 0.312074 1.2138 0.137408 
0.459788 1.25049 0.226505 0.300152 1.21428 0.20412 0.47322 1.21419 0.169815 
0.372416 1.23124 0.163559 0.639644 0.23138 0.178835 0.564346 0.412257 0.0315353 
0.659978 0.193083 0.0557309 0.661443 0.28736 0.212706 0.639942 0.241656 0.26351 
0.668981 0.174359 0.206868 0.642864 0.223135 0.115023 0.631907 0.40739 0.0363431 
0.592549 0.424119 0.08949 0.526768 0.510414 0.265844 0.60469 0.488362 0.262793 
0.617397 0.291062 0.15894 0.638865 0.377763 0.245552 0.613666 0.460855 0.137023 
0.587161 0.547727 0.0375171 0.660398 0.424307 0.101923 0.533697 0.637268 0.132149 
0.603857 0.529317 0.14654 0.574893 0.525786 0.211594 0.592107 0.434109 0.220478 
0.613295 0.624964 0.266299 0.603486 0.719514 0.0390319 0.555193 0.611245 0.064834 
0.568846 0.735533 0.0984502 0.566036 0.699253 0.157333 0.599741 0.711133 0.268228 
0.590612 0.63545 0.174202 0.643127 0.642218 0.210847 0.572088 0.673087 0.224362 
0.596447 0.760014 0.159919 0.586616 0.667186 0.0960998 0.639467 0.788799 0.0390293 
0.561289 0.798124 0.0908375 0.542004 0.815136 0.189835 0.545052 0.832893 0.261833 
0.61585 0.775619 0.265249 0.516153 0.874303 0.210425 0.625097 0.710198 0.200589 
0.60052 0.823028 0.221661 0.584801 0.838246 0.0356765 0.560632 0.862313 0.0930946 
0.56556 0.91123 0.0397006 0.503398 0.945157 0.0315429 0.551989 0.910301 0.260436 
0.598009 0.968044 0.265549 0.528185 0.863722 0.146521 0.505619 0.925028 0.173173 
0.534835 1.00477 0.0510844 0.522385 0.917864 0.106955 0.473546 1.06026 0.189013 
0.467955 0.996525 0.154778 0.536945 0.989599 0.138495 0.517973 1.04778 0.269179 
0.570999 0.945602 0.192473 0.43626 1.06743 0.0347798 0.539474 1.12589 0.0335713 
0.573005 1.0659 0.0351735 0.503879 1.0666 0.0328709 0.552167 1.10837 0.0954361 
0.522772 1.05094 0.104814 0.543281 1.00948 0.209326 0.502715 1.12647 0.205497 
0.537991 1.23497 0.0889774 0.573714 1.2121 0.0322879 0.563083 1.17789 0.123256 
0.523024 1.09261 0.152399 0.604526 1.0881 0.268671 0.539397 1.23893 0.159039 
0.533958 1.21325 0.238177 0.565744 1.13161 0.180557 0.557777 1.074 0.214359 
0.553802 1.13816 0.259467 0.63928 1.20792 0.0432386 0.621447 1.21055 0.110611 
0.46423 1.2159 0.100675 0.647321 1.23708 0.221335 0.594945 1.20007 0.186372 
0.758748 1.18626 0.20785 0.679025 0.13078 0.0405613 0.693345 0.119429 0.112726 
0.721563 0.0322004 0.192883 0.681985 0.134322 0.265517 0.698036 0.0940371 0.18134 
0.636973 0.26268 0.0387344 0.69501 0.315659 0.0396739 0.702565 0.225142 0.149632 
0.70418 0.26692 0.267353 0.640316 0.406672 0.174615 0.694925 0.200079 0.26745 
0.678316 0.3276 0.266699 0.662541 0.336639 0.137813 0.680418 0.459072 0.0422745 
0.659056 0.49548 0.097206 0.652307 0.357806 0.0777683 0.685843 0.467293 0.158345 
0.64905 0.462397 0.216813 0.681209 0.278749 0.104552 0.728046 0.422715 0.196583 
0.690623 0.353834 0.201194 0.611338 0.645831 0.0351628 0.661952 0.525879 0.0349401 
0.635094 0.558432 0.0890016 0.595181 0.600189 0.120081 0.647806 0.608236 0.156595 
0.66372 0.68429 0.262134 0.637838 0.54706 0.269081 0.68678 0.582957 0.207127 
0.616708 0.579058 0.208426 0.672332 0.54776 0.149949 0.677259 0.5168 0.206214 
0.628392 0.716046 0.122521 0.658008 0.655843 0.091252 0.696914 0.573081 0.0972362 
0.708229 0.628197 0.138368 0.717193 0.647755 0.206931 0.660746 0.823939 0.268703 
0.664799 0.672686 0.159375 0.62392 0.803213 0.11681 0.647322 0.877421 0.0390991 
0.689742 0.762294 0.0795877 0.707911 0.703564 0.0846524 0.67999 0.763435 0.149069 
0.636832 0.776438 0.203026 0.69667 0.716175 0.204787 0.61362 0.869508 0.265678 
0.582946 0.872844 0.181603 0.61481 0.970309 0.0372508 0.668634 0.985535 0.0763679 
0.629409 0.869361 0.106072 0.643444 0.92769 0.0888394 0.586799 0.909155 0.126041 
0.609902 0.968228 0.138994 0.634207 0.985399 0.209663 0.67637 0.850177 0.147982 
0.635909 0.923414 0.233762 0.643777 0.866659 0.207044 0.633056 0.917109 0.169159 
0.630436 1.10802 0.0300652 0.641965 1.04083 0.0402337 0.69443 1.0932 0.0358784 
0.574237 0.957593 0.0911275 0.593942 1.02188 0.0955704 0.667518 1.04306 0.115834 
0.577943 1.0312 0.260425 0.613565 1.02624 0.161774 0.671648 1.03216 0.184306 
0.616591 1.09045 0.0911995 0.621712 1.14403 0.13879 0.696834 1.16611 0.0370849 
0.596263 1.15476 0.064826 0.582561 1.0792 0.146956 0.624005 1.05667 0.21711 
0.741269 1.13276 0.0834951 0.635942 1.13345 0.223591 0.661013 1.09323 0.167479 
0.603689 1.19657 0.263608 0.749134 1.21347 0.033559 0.7905 1.1833 0.100866 
0.689423 1.17009 0.10613 0.672529 1.19917 0.168332 0.677305 1.1881 0.26032 
0.722175 0.0831828 0.0341645 0.754102 0.12199 0.0764345 0.718188 0.049023 0.117546 
0.784008 0.058242 0.125443 0.723256 0.0419574 0.262519 0.734976 0.105449 0.242303 
0.707774 0.242171 0.035059 0.751055 0.181987 0.0391983 0.768659 0.265874 0.0304511 
0.737169 0.177703 0.110561 0.728087 0.156645 0.172857 0.755713 0.167341 0.2634 
0.774154 0.23035 0.155834 0.769636 0.243794 0.262055 0.731084 0.210001 0.212619 
0.702933 0.391249 0.0363959 0.76463 0.327596 0.0316608 0.720305 0.333423 0.103232 
0.746962 0.252371 0.0929278 0.732365 0.418982 0.092505 0.764449 0.374201 0.126615 
0.703563 0.387184 0.140819 0.747747 0.320518 0.263464 0.734728 0.282067 0.198357 
0.69702 0.419966 0.260497 0.726583 0.513939 0.0860898 0.752714 0.463624 0.037811 
0.797281 0.485335 0.0862613 0.754519 0.469234 0.13408 0.789667 0.419874 0.169792 
0.674482 0.494297 0.266635 0.803958 0.511446 0.264172 0.773821 0.401762 0.260576 
0.740396 0.481092 0.247087 0.718108 0.548595 0.263651 0.669239 0.599463 0.0391269 
0.694622 0.664963 0.0315329 0.736754 0.533853 0.175042 0.761048 0.582004 0.121268 
0.678682 0.614004 0.2674 0.752447 0.58537 0.217056 0.74324 0.622471 0.267491 
0.673478 0.724194 0.0329751 0.747696 0.749272 0.11149 0.758492 0.69273 0.0384682 
0.727864 0.755132 0.031209 0.748752 0.656648 0.0969619 0.739959 0.693998 0.261127 
0.6876 0.817649 0.208728 0.726386 0.693009 0.146127 0.751155 0.745452 0.17829 
0.693893 0.745152 0.269539 0.702018 0.934534 0.0399805 0.717092 0.853923 0.0346138 
0.681267 0.825772 0.0845815 0.694085 0.888946 0.0956404 0.739218 0.810408 0.159544 
0.738728 0.8394 0.260086 0.733976 0.776932 0.228712 0.681268 0.886342 0.265524 
0.713066 0.878137 0.206584 0.687902 0.951487 0.268911 0.717675 1.02126 0.0398203 
0.725438 1.06961 0.0897204 0.726976 0.953685 0.107555 0.689454 0.948515 0.205726 
0.672025 0.976142 0.138666 0.693481 0.918787 0.15085 0.730244 1.00998 0.155627 
[...]
POINT_DATA 1274
FIELD FieldData 10
VELOCITY 3 1274 double
0.00049771637458 -0.00060512864184 -0.00033229253207 1.9059197961e-05 -0.00069050301442 -0.00052890505199 0.00010387001139 -0.00029549697749 4.7767047161e-06 
0.00016477452117 -0.0017292733302 0.0018257915257 0.0003240760215 -0.00085680092769 -0.00026001478834 0.00040826111277 -0.00055666608448 0.00045380660074 
0.00019290943756 -0.00019554901642 0.00030431788097 -0.00052477229561 -0.00068337860834 7.3616714047e-06 0.00042664512424 -0.0010760057989 -0.00017986682246 
0.00020489979805 -0.00055050291303 0.0003476258751 0.00031932625659 -0.00079986562252 -0.00021108568762 0.00038312088121 -0.00093914629188 1.0434797197e-05 
0.00041016607793 -0.00099543782953 -1.637989567e-05 0.00044956676605 -0.0010935306021 -3.1592637266e-05 0.00025820868222 -0.0006702667183 -6.8260554816e-05 
0.0004084554902 -0.00095776411301 6.0526662912e-05 0.0003995119705 -0.00095764648606 1.7287216829e-06 0.00042837645411 -0.0010775406858 3.3756642888e-05 
0.00095815734186 -0.0012702248258 -0.00019834566505 0.00047440594888 -0.00055313780801 -6.32648372e-05 0.00033623989235 -0.0008583665167 0.00023555043588 
3.8427259647e-05 -0.00076812192001 -8.329592759e-05 0.00027977743104 -0.00067811891824 0.00018747790867 0.00019601667548 -0.00049830442924 -0.00015172122372 
0.00044696539288 -0.0010734595083 0.00013128320741 0.00019695549471 -0.00056669256783 0.00024321343856 0.0002568082579 -0.00062533082847 -4.0652351041e-05 
0.00031238978799 -0.00073466440013 -1.1208001566e-05 0.00061358457597 -0.0011067511484 -0.0005458981754 0.00031104403459 -0.00070952647355 -0.00042930174417 
0.000213884595 -0.0010931163117 2.2880872919e-05 0.000225377885 -0.00053043879087 3.8935238593e-05 0.00028266127964 -0.00064108365272 -0.000202980342 
0.00048742714932 -0.0011123629676 -0.00020696071519 0.00066727110855 -0.001020988183 0.00052951810048 0.00031061327378 -0.00072433037896 -8.1531384496e-05 
0.00067590990784 -0.00099399261438 -8.7802479594e-05 0.00029768409082 -0.00069165875195 -8.3290851848e-05 5.0774255859e-05 -0.00083370950482 -0.00015674397477 
0.00022872897965 -0.00056754763832 -5.0114719158e-06 0.00047602062933 -0.0010529510474 -0.00026592176619 0.00034035589028 -0.00069161626678 -0.00013875253458 
0.00029126623405 -0.00074666221706 -0.00011007082395 -9.878341115e-05 -0.00058784453729 1.8277594445e-05 0.00030843874173 -0.00071829266816 -8.4760507724e-05 
0.00057669825666 -0.0010586541286 7.544038468e-06 0.00017453728214 -0.00044195597225 -0.00027080585532 0.00029392696735 -0.00071813992949 -9.5490057608e-05 
0.0012075518189 -0.0021772731849 -2.7454997687e-06 0.00032383167792 -0.00082132405929 0.00037716230738 0.00065863568605 -0.00076984926326 0.00056673146983 
-0.00025835199579 0.00020386436237 0.00071858913775 0.00013225776324 0.0011483293172 0.000589284151 0.00036103885087 -0.0010541149688 0.00030088804828 
0.00014015635329 -0.00031838999775 0.00056925173603 9.3065034215e-05 -6.5278902296e-05 0.00013716051329 0.00020040049836 -0.00046507139109 -1.5158934488e-05 
0.00016433084664 -0.00039518192119 0.00050625022978 0.00042251777655 -0.00094381752886 -0.00041507019133 -0.00036566015326 -0.0011070615133 -0.00022718078219 
0.00036679736866 -0.00050851310258 2.4095945769e-05 -4.8710819971e-06 -0.00037985788637 -0.00034981889612 -7.9188303627e-05 -0.00095186962286 1.6309596045e-05 
0.00016726863936 -0.0004580620371 -9.5190086699e-05 0.0007036382779 -0.00047798602256 -7.0806131245e-05 -6.5809315326e-06 -0.00015679172217 0.00066464759989 
0.0001561363019 -0.00061831431002 0.00080960918014 0.00080339101802 -0.00067858436393 0.00017000968273 0.00064841510192 -0.00060884270387 -0.00059294478679 
-0.00024891348804 -0.00057132007733 -7.7653892471e-06 0.00021005785529 -0.00044006072309 -0.00029864295938 0.00029567976173 -0.00092727622483 -6.2864129025e-06 
0.00013617608368 -0.0010959527271 -0.00053294546009 -0.00029849366308 -0.00045881747385 -0.00026254468497 0.00019219494432 -0.00074487167481 -3.1305685547e-05 
0.0007575010318 -0.001566712175 0.0005447660956 0.00060916438788 -0.0010955425922 3.5368932361e-05 0.0003823970226 -0.00099540422644 9.0717351758e-05 
0.00065065646579 -0.0010066644478 0.00014532176093 0.00043214937381 -0.00053358725932 -0.00022528153765 0.00039787218406 -0.00095243863043 3.1170733904e-05 
0.00043882194556 -0.00093398595297 -8.003051467e-05 0.00017678144531 -0.0004669971981 -8.4575273747e-06 0.00058200151823 -0.001252685454 -0.00014450332292 
-0.00017259177871 -0.00050046576063 -0.00043252328475 0.00010559068961 -0.00048497410261 0.00016204396953 0.00030888894346 -0.00097125203044 0.00036538521104 
-8.7278705502e-05 -0.0013212333123 -0.00052916299531 0.00047936666323 -0.0011448823331 -3.169384383e-05 -0.00036556508483 -0.0010741011506 -3.3130976261e-05 
0.00029148618301 -0.0010191983247 -0.00023609985761 -0.00031721252352 -0.00090898449358 2.3646793619e-05 0.00066547656502 -0.00088453377207 5.4637968533e-05 
0.00044643421965 -0.00075453197248 -4.7560990632e-05 0.0001169952115 -0.000995193748 -4.3435077017e-05 0.00061991604978 -0.00039859460696 -4.5867649344e-05 
0.00042023866273 -0.00091320391504 0.00010098020492 0.00040462321125 -0.00080737746609 0.00052760650345 0.00045591175847 -0.00069763560461 0.00032046083621 
-0.00012735353781 -0.00091088362494 0.00075265941519 -0.00020099001325 -0.00088030774894 0.00023390385093 0.00026801666336 -0.0011722392263 -8.4771651444e-05 
0.00078771770739 -0.0019811644929 0.00013353534599 0.00038802633752 -0.0011305884217 8.2504132961e-06 2.1587102353e-05 -0.001405088903 -0.00032710699006 
0.00028375027032 -0.00064476024025 8.6072457846e-05 0.00028017154097 -0.00076433755284 -0.00011665991712 0.00030376904663 -0.00057473500577 -1.8164751156e-05 
0.0004401897915 -0.00053325460088 7.2212647331e-06 0.00043658282573 -0.00036990346041 -3.0330640087e-05 -0.00031365779853 -0.0010682478844 0.00063996198966 
0.00064683602393 -0.0010422476452 -6.4262389173e-05 0.00031980055158 -0.00083186543772 0.00041874455015 0.00013327387995 -0.0010465467031 0.00034240822585 
-0.00024793702001 -0.00070041095307 5.0587235063e-05 0.0017522187476 -0.0015847074403 -0.0010407895932 -0.00053553458081 -0.0015005172324 -0.00027997728539 
-2.2083686683e-05 -0.00067098781382 0.00010238072312 -5.4118149994e-05 -0.00059005916507 -2.3919654272e-05 0.00013014813409 -0.0012764706369 3.7176835454e-05 
-8.2651178978e-05 -0.0006225686932 1.0187074007e-05 0.00053099352719 -0.00088861458908 0.00025580796363 0.0025487317892 -0.0025722699331 -0.01223530802 
0.00058989379497 -0.0010067062459 1.3246866324e-06 0.00055698737819 -0.0010691394289 -0.00024489507118 0.0003902375719 -0.00074785086107 0.00023518960516 
-5.5492569938e-05 -0.00061928739112 1.0869403169e-05 0.00093423796877 -0.0010563855651 -0.00013047666438 0.00078161168004 -0.0014571615789 1.9948939137e-05 
2.9286345734e-05 -0.00050792759504 4.223456737e-05 0.00049999796682 -0.00090718440651 1.0210564913e-05 0.00065876455455 -0.0009910231492 1.9979390722e-05 
0.00058501141548 -0.0010332698254 -0.00080659034323 0.00021929050611 -0.0008103431378 -5.5027460586e-05 0.001655350444 -0.0015659882811 -0.00021650212204 
0.00090940389785 -0.0015564142329 -8.9681141015e-05 1.4460791977e-05 -3.0882208322e-05 0.00075365754014 -0.00031798437096 0.00086070894696 -0.00027615776979 
-2.7680439681e-05 -0.00015660624784 0.0008405066505 0.00071386810152 -0.00065576429277 -0.00015183831947 9.7420986092e-05 0.0002767987448 0.00083412519519 
0.00024344945403 -0.00019648637813 0.00024347754615 -2.2469203331e-05 -0.00019662232616 0.00096059399222 -0.00035654431758 -0.0011677705571 -4.3076298038e-06 
-0.0011287671328 -0.0014151176169 -0.00029334323585 7.3937905163e-05 -0.00029198791496 -3.2530979819e-06 0.00063299529355 -0.00097976846186 0.00011511120325 
2.3393904188e-05 -0.0001039825005 0.00031755074748 0.00027588007646 -0.0011408749998 0.00099706065501 -0.00036375484858 -0.00039797976601 -0.0016419347667 
0.00044584954102 -0.0010562904556 8.0292067398e-06 -0.00055767866638 -0.00094715952734 5.8177125301e-06 0.00086534807588 -0.00068334152178 -0.00095808736169 
0.00071463511097 -0.00068069883638 0.00098372290017 0.00049404929544 -0.00081693077559 -0.00029201888092 0.00058329417573 -0.00065225575065 -0.00040769086459 
0.00018352035313 -0.0010561970898 -2.187452518e-05 0.00036157495397 -0.0016043018242 0.00011170412679 -0.00025704238222 -0.00031711974998 0.00025820441335 
-6.7687019668e-05 -0.00046676877132 -0.00040940116152 0.00037692939308 -0.0010192424618 0.00061901046263 9.9351659202e-05 -0.00072097215915 -6.629417214e-05 
0.00087465367597 -0.00082692129039 -0.00015051030237 0.00057562452189 -0.00081913483749 4.4289990517e-05 0.00013900815076 -0.00099854918528 0.00017814545717 
-0.00069277947663 0.00014722535286 9.9112838653e-05 0.00028064663115 -0.00057541838649 -0.00023329643501 -0.00033177895487 -0.0010541784063 -8.0893372204e-06 
0.00018524119022 -0.00057727894558 0.00033153080792 4.9113785327e-05 -0.0005257994428 -0.00015373978519 0.00057142170581 -0.00087421559754 4.9263713358e-05 
-0.00013080507929 -0.00025091880895 6.6985791955e-05 -0.0010741468461 -0.0015752608044 0.0013134345388 0.00026799868627 -0.001177315157 0.00018000419946 
0.00031120059872 -0.0012111752589 -6.7305391213e-05 0.00010405871136 -0.00047895053591 -0.0012095642542 -0.00017863613836 -0.0020464522066 -0.00061853287634 
0.00055372904584 -0.002036922566 0.00014100580805 0.00076559820869 -0.0014317540929 -0.00025323220183 -0.00010496844454 -0.0008838007447 -0.00015240844922 
0.00020960805773 -0.00097856552025 0.00013601041784 0.00012242631129 -0.00057569632603 -0.00014379764979 -5.6747404428e-05 -0.0015830243295 -0.0015883815306 
0.00038641888037 -0.0013613404887 0.0002343756706 0.00033076969831 -0.0015894159668 -0.0015815253661 0.00016089052402 -0.0011012411834 0.00025573595624 
0.00081498234482 -0.0011516463934 0.00032505270993 0.00054560797547 -0.0011773732967 -0.00085625703014 0.00038896242299 -0.0010655256677 -1.1616924517e-05 
-0.00036746625529 -0.0013469390583 -0.0003256523998 -7.650701035e-05 -0.0008442008836 0.00017778484526 -0.00027017896743 -0.0012680579298 6.3480439835e-05 
-4.2582764387e-05 -0.0011743089931 -0.00012225081229 8.3848626161e-05 -0.0015346353502 -7.5805471295e-06 0.00014550643744 -0.00069614317683 0.00011241232873 
0.00044719030709 -0.00091606902876 -0.00031202538437 -0.00028643656458 -0.0015215608523 -0.00036489193092 0.00038439020699 -0.0010046553909 -0.00089524185915 
0.00053632561355 -0.00046240171424 -6.9790820471e-05 0.00045672543282 -0.00084821048277 6.3529727528e-06 0.0013021533467 -0.0011966764847 -0.00189678592 
-0.00029502610527 -0.0012104448124 -6.8223774825e-06 0.0003928047165 -0.0010619567293 3.5277950154e-05 0.000934806895 -0.0011094158184 -4.4976317373e-05 
0.00013111016909 -0.001922329309 -0.00060927550962 0.0011509304715 -0.0019648319727 0.00012154524035 -0.00099258916101 -0.0013836446915 0.00057107627931 
-0.00031354378385 -0.0018291120815 -4.6420719363e-05 0.00054239670317 -0.0010274989243 -0.00043500220056 0.0014267741878 -0.00079608019175 -0.0002739121394 
0.00069789994773 -0.0011439535681 -8.0130216457e-05 0.0002199514394 -0.0016199494621 0.00038750976651 0.00053200408722 -0.0016670139672 -0.00013443940798 
0.0038741743109 -0.0045526680838 -0.00084641560124 -5.9180205124e-05 0.00011324265002 -0.0001275838726 -0.00028663930782 0.00068760721531 0.00055141121454 
9.4136146292e-05 -7.1957710597e-05 0.00022180499566 0.00018694065999 -0.001297454202 -0.0002627503884 -0.0002283258272 0.00062382531987 0.00061593536828 
-0.00033962510157 -0.00073515086978 -1.0014137716e-05 0.00076809616695 -0.00050282008778 4.3816495633e-05 -0.00032172911897 -7.2369156765e-05 0.0010273539103 
0.00031522285987 -0.00048863617852 -0.00050225973211 -0.00018844557914 -0.00063071716333 -0.00026633196186 -0.00011389628448 -0.0006865962177 -0.00012016042643 
0.0019019000173 0.00062545778879 0.00041620045668 -0.00040356668694 -0.00043597103833 6.3182470054e-05 -0.00036097102353 -0.0013239012288 -0.00059560658119 
-6.5093635578e-05 -0.00063849248017 -0.00057827131168 -0.00021431516987 -0.0012745771833 -0.00021282002181 -0.00014978104156 -0.00048737041748 -0.00036461477001 
0.00063397355513 -0.00073827182315 0.0003536475369 0.00094491336886 -0.00062165374107 -0.00013227351055 -0.052196468542 -0.3855641014 -0.057438595989 
-5.8292083768e-05 -0.00032844467108 -0.00013910571305 0.00064615385446 -0.0012482323769 0.00023084162795 -0.00030056402051 -0.0011935839648 3.8947613478e-05 
-7.3500705895e-05 -0.00017437378319 0.00063203202311 0.00048981809622 -0.00093113133948 -0.00051333468475 0.00018385277765 -0.0016138456458 0.000681980455 
0.00022671774673 -0.0008359167466 1.5566175156e-05 0.00023101665725 -0.00076834758185 -1.6213864225e-07 7.8708669341e-06 -0.00067045588912 0.00017677274229 
4.5212944284e-05 -0.0004923966551 0.00068752148961 0.00066514855983 -0.00071790376592 -9.5480740911e-05 0.00020482686703 -0.00064731081211 -0.00022091903426 
0.00042300398519 -0.0011073702168 0.0002597325856 0.00020185534379 -0.0017796620578 0.00055938961207 0.00072171354935 -0.0013436586494 -0.00029495657159 
-0.00010312988908 -0.0014130503472 0.00020993951379 0.0002050116059 -0.00075949672849 -0.00034561445164 0.00032602146521 -0.00079783535142 9.5751958972e-05 
0.00040801567982 -0.00095934285393 0.0003553111276 0.00068619451587 -0.00112892012 -4.7374372201e-05 0.0007710792672 -0.0014423460462 2.6793093289e-05 
-0.00043897090571 -0.0013538180194 -6.1584511899e-05 0.00019604754922 -0.0017442320659 0.00074805766486 0.00034981529655 -0.001344808827 -0.0001492648107 
0.00044993767072 -0.0013616412279 0.00020081221573 0.00054026190435 -9.2743302686e-06 0.00037832427539 -8.1117064345e-05 -0.0011552449359 -3.5896700698e-05 
0.0008518935863 -0.0012726726601 -0.0009275285296 0.00014456580743 -0.0015449652414 1.3033708486e-05 -6.164045705e-05 -0.0012714292014 0.00021472050862 
0.0010144825903 -0.00096326614191 0.00039978127596 0.00096900702031 -0.00094840144471 -0.00043529612166 -2.3567979621e-05 -0.0016933678669 -0.00090157701509 
0.00019702165517 -0.0012203769298 8.4098145689e-06 0.00059262013033 -0.0011968514284 7.1696746442e-05 0.0012668914963 -0.0014903626268 -2.8701236553e-05 
-4.2845644643e-05 -0.00094182828694 0.00017743916479 -4.9933708938e-05 -0.0017749444978 0.00095093747726 -0.00086855970092 -0.0027782983366 -0.00015987705097 
-0.00014037771381 -0.00085524227553 4.9776133407e-06 -0.00013252979044 -0.0014038449477 -0.00033179390779 -0.00019469715658 -0.0015146715691 6.357970065e-06 
0.00046736297617 -0.0016459786844 -0.00016704495396 0.00050832477163 -0.0014444296512 0.0001182185453 0.00036964181454 -0.0011393179882 2.0836825435e-05 
0.00038532532196 -0.0010990183784 0.00010329070397 0.00058394877405 -0.0011945347497 0.00013372405951 0.00060114783037 -0.0011787018743 -6.7993203361e-05 
-9.2587748493e-05 -0.0014499484741 -9.766480381e-05 0.0011845623306 -0.00091460354247 -0.0006210134409 0.00014511630246 -0.001566464768 -4.8056884993e-05 
0.00077898680318 -0.0016587204544 -0.0016067492171 -0.00047609439071 -0.0020220804034 -0.00046270432692 0.00053191195144 -0.0011101397029 7.132290706e-05 
9.6221923143e-05 -0.0015173966282 0.00014026054798 0.0003716646924 -0.0010536716329 8.9025727425e-06 0.00011854695783 -0.0011479593374 7.9727495024e-05 
-0.00012524966564 -0.0020009139964 2.6955045348e-05 -1.3400829179e-05 -0.0014357020814 2.0246421365e-05 0.00085242653858 -0.0020678353468 -0.00044621485635 
0.00040908553743 -0.0011183341778 2.4489464083e-05 0.00058277972788 -0.00080212028128 -3.1970652016e-05 -6.198390329e-05 -0.0014957879133 0.00068364424794 
0.00043518301879 0.00038912906708 0.00010786707967 -0.00053980406858 -0.00020585897942 0.00027872022906 -0.00025872559427 0.00076984969248 0.00070225090846 
-0.00023739479651 -0.00083644072544 0.0010064705368 0.00067325937639 -0.0016284119835 -9.7580292461e-06 0.001000766341 -0.00021395858926 0.0015421245446 
0.00027789473296 -0.00033512996949 0.0012902529956 0.0002070301839 -0.00044924113129 -0.00051493544438 0.00070170269163 0.0011558239281 -0.0015861881457 
-0.00037683543659 0.00051694705447 -0.00015253259367 -0.00026840605612 0.00050392238901 -0.0014734492106 0.00029797722645 -0.00053250715462 1.0211641703e-05 
-0.00012113744231 -0.00047590044246 -0.00071735811299 -3.2084095485e-05 -0.0011144922442 -0.00029040305146 0.0010599422428 -0.0010295554127 0.00030922047571 
-9.6634018948e-05 -0.00018326242974 -1.3124622526e-05 0.00078710512353 -0.00028866041363 -0.00021064078673 -2.3574920069e-05 0.00013341992694 0.00028963701402 
0.00077346016057 -0.00093004686114 -0.0003392163048 0.0004603954996 -0.00063738575082 -3.0146436928e-05 0.00021570604314 -0.0001706333103 0.00069420560927 
-0.00011640141377 0.0004527382205 0.00040733811537 0.00022806868258 -0.00053373371553 5.8471473649e-05 0.0001544812402 -0.0010121028553 -0.00011479095848 
-9.1907666339e-05 0.00045421975463 -4.7733177297e-05 2.396286877e-05 -0.00081220624485 0.0010945009497 -0.00051180954078 -0.00017085401247 0.00012016915293 
-0.00019053190552 -0.0013805932346 0.00037933332558 0.00034773506067 -0.00083034322722 0.0010959743929 0.0015675268824 -0.00085776632529 0.0011039475476 
0.00071901261352 -0.00058761456419 -4.7455734028e-05 0.00041221420551 -0.00013606316531 0.00012156563125 -0.00037197397049 -0.0013818408911 -0.00018544630418 
0.00051441332395 -0.00013645316296 -0.0006482354833 0.00044475635768 -0.00035102847464 -1.3335383997e-05 0.00024809680144 -0.0013291431 -8.6338534478e-05 
-0.00044888592002 -0.00089510015346 0.00010090151324 0.00054168385944 -0.0013266721376 0.00056059150697 0.00014868076201 -0.00059654442908 0.0010861312322 
7.8341658521e-05 -0.00051736186253 1.6093618258e-06 9.1849561747e-05 -0.00054161452146 -0.00033521632362 0.0001346699857 -0.00090486257027 2.4262468554e-06 
-0.00031748639653 -8.5390234117e-05 -7.5407264799e-05 0.0004921660424 -0.0016174836467 0.00046725445113 -0.00043802068887 -0.0013359768775 9.0840564942e-05 
0.00023281282546 -0.0018962484071 -4.1778798109e-05 -0.00048833696393 -0.0014606441729 4.8190009255e-05 0.00049729636893 -0.0012448866704 0.00028475758414 
0.00055264167777 -0.0015443209449 -2.8552309219e-05 0.00048096185936 -0.0018654513118 0.00066306348468 0.00040116582975 -0.0012907602925 0.00068338647939 
0.00050229330718 -0.00091940623826 -1.0291524234e-06 7.9137875041e-05 -0.00084448405148 5.1972814675e-05 0.00033656603485 -0.0013007287827 5.3905329981e-05 
0.0001019068245 -0.0011082320812 -0.00037186900334 0.00097538060616 -0.0015864178333 -0.00021443699135 0.00027593994675 -0.00065842102711 -0.00038835861891 
-0.00047021632004 -0.0014822195046 -0.00010555066632 -0.00047121264989 -0.0019627636556 0.0010164990047 0.00024743452033 -0.00093817930441 -0.00041925415177 
-3.2988125654e-05 -0.0011020716895 0.00015636718851 0.00027102257428 -0.00086733808741 1.1353571707e-05 -3.4844329564e-05 -0.0014667506292 6.152853597e-05 
0.00024455482943 -0.0014061901443 -0.00016332131563 0.00045951760127 -0.0020528350363 0.0002537884132 -0.00014995207809 -0.0019970939005 9.3607132589e-05 
7.3183838968e-05 -0.0010856384759 -6.4530093759e-05 -0.00067609545046 -0.0011059584685 -0.00035651831053 0.00062059389104 -0.0017615459057 -8.870199223e-06 
0.00037780787709 -0.0011649622392 -1.3567666521e-05 0.00055078089877 -0.001571018571 0.00024028838969 0.00019031613157 -0.0011082215618 -0.00015349319982 
-0.00021419916082 -0.0014443132547 0.00031717185754 -0.00037362645761 -0.0020081746349 -2.3329330131e-05 8.327657135e-05 -0.001486790788 -0.00020971674487 
-0.00010628884363 -0.0023207073144 -0.00021787846463 0.002473354245 -0.0014773004515 0.00053037922667 0.00010455985547 -0.0021700083038 -0.00025170128055 
-8.3448499072e-05 -0.0016614241495 1.8276263313e-05 0.00058092999543 -0.001037458672 -7.7078693118e-05 0.00053822067925 -0.0011736170064 0.00028429287236 
0.00017180767022 -0.0011277224252 0.00019444694155 0.00015327818383 -0.0011645091622 -0.00046328488689 8.9344218972e-05 -0.0012503399003 2.8275559945e-05 