# vtk DataFile Version 4.1
vtk output
ASCII
DATASET UNSTRUCTURED_GRID
POINTS 1274 float
0.51247 0.555101 0.0379514 0.469305 0.651707 0.105402 0.487453 0.599027 0.268458 
0.494544 0.588045 0.0992827 0.423409 0.756593 0.0323141 0.424207 0.769054 0.119274 
0.475309 0.638045 0.21299 0.459585 0.67092 0.26865 0.39348 0.846197 0.0591258 
0.398163 0.813343 0.164395 0.445498 0.700338 0.215119 0.432364 0.739891 0.265757 
0.362474 0.903675 0.0319701 0.343274 0.969367 0.0517029 0.381017 0.87916 0.146386 
0.394502 0.845134 0.231971 0.34498 0.958441 0.260041 0.313538 1.04025 0.0387191 
0.389998 0.9147 0.0866911 0.447272 0.899678 0.110179 0.331854 0.997124 0.129888 
0.408651 0.915872 0.218466 0.310123 1.03844 0.265121 0.351736 0.930153 0.187778 
0.281101 1.10309 0.0483702 0.327756 0.988348 0.200577 0.286308 1.10895 0.260298 
0.25728 1.16359 0.0336644 0.356672 1.11664 0.104732 0.301572 1.06966 0.109503 
0.289677 1.25309 0.0382188 0.302605 1.04601 0.200307 0.283271 1.10121 0.172513 
0.332863 1.2564 0.0927899 0.384267 1.15881 0.0373694 0.275298 1.14908 0.110417 
0.421166 1.15078 0.106589 0.26042 1.1512 0.208678 0.339903 1.10774 0.211388 
0.218505 1.25658 0.0332146 0.319456 1.1871 0.0544652 0.319446 1.15752 0.173709 
0.244462 1.19971 0.16467 0.287513 1.18367 0.26484 0.238795 1.2228 0.0938646 
0.37139 1.23273 0.0356631 0.236363 1.23068 0.236506 0.215433 1.25736 0.149808 
0.54145 0.470115 0.030208 0.611586 0.295524 0.0943597 0.595432 0.358992 0.12116 
0.596788 0.347908 0.197373 0.575994 0.389126 0.266499 0.609954 0.314726 0.261746 
0.54059 0.470269 0.209837 0.50843 0.558539 0.219279 0.603334 0.329045 0.0358989 
0.566623 0.417645 0.159353 0.483532 0.625194 0.0388046 0.609872 0.476224 0.0480561 
0.545839 0.475328 0.0985116 0.549436 0.448462 0.268474 0.565065 0.572484 0.262774 
0.527284 0.512776 0.159537 0.55049 0.669427 0.030859 0.445188 0.711962 0.0784405 
0.517404 0.698317 0.106242 0.471162 0.754282 0.178139 0.550927 0.548492 0.100954 
0.523179 0.659374 0.266703 0.446088 0.697567 0.146217 0.414566 0.778508 0.214337 
0.500904 0.681811 0.17031 0.554132 0.57782 0.168552 0.493906 0.781251 0.0919199 
0.535101 0.761507 0.146222 0.45824 0.815646 0.0363747 0.508295 0.725331 0.0397537 
0.484153 0.818717 0.150672 0.436396 0.836421 0.113171 0.364175 0.895074 0.269731 
0.499097 0.770159 0.260787 0.538491 0.618284 0.219245 0.563096 0.748505 0.220224 
0.467566 0.816495 0.213515 0.506379 0.706978 0.226843 0.459798 0.89033 0.0401464 
0.520366 0.854782 0.0355406 0.53539 0.792056 0.032623 0.453972 0.876618 0.177747 
0.494774 0.850984 0.0954916 0.465097 0.870934 0.260663 0.438533 0.804758 0.26901 
0.416616 0.952551 0.0373624 0.373416 1.09047 0.0325884 0.46569 1.00548 0.0331272 
0.400145 0.997747 0.0947821 0.415157 0.94899 0.150582 0.467799 0.964973 0.0912006 
0.485352 0.941868 0.261945 0.419531 0.973354 0.26148 0.534882 0.984237 0.2689 
0.459525 0.95321 0.203093 0.383582 1.02534 0.0323972 0.365335 1.05579 0.0850554 
0.463469 1.03292 0.0903579 0.362588 1.06384 0.158429 0.395235 1.00543 0.196863 
0.441514 1.05175 0.264239 0.376919 1.02987 0.267485 0.483267 1.00446 0.236104 
0.456398 1.13719 0.0385412 0.470461 1.08388 0.123194 0.427112 1.04286 0.138858 
0.361049 1.09118 0.269156 0.525891 1.17958 0.175634 0.489855 1.10329 0.267762 
0.407855 1.08901 0.213217 0.429576 1.13433 0.264219 0.445367 1.12124 0.16679 
0.358993 1.1613 0.260112 0.510766 1.18775 0.0383686 0.498374 1.1476 0.119285 
0.436301 1.20696 0.0341933 0.369421 1.20258 0.101169 0.381106 1.1341 0.166459 
0.338928 1.23764 0.260951 0.453231 1.16847 0.207684 0.402315 1.2073 0.220988 
0.469288 1.19153 0.266121 0.487133 1.25571 0.0362705 0.312374 1.21313 0.137382 
0.460076 1.24981 0.226015 0.300267 1.21365 0.20406 0.474114 1.21306 0.169768 
0.372872 1.23009 0.16349 0.639597 0.231494 0.17926 0.564159 0.412711 0.0315597 
0.660006 0.193011 0.0563451 0.661378 0.287361 0.212955 0.640106 0.241269 0.263509 
0.668981 0.17436 0.20701 0.642756 0.223397 0.115426 0.631616 0.40655 0.0363493 
0.592308 0.423394 0.0894989 0.526896 0.510104 0.265843 0.605261 0.487421 0.262759 
0.617377 0.291114 0.159156 0.639143 0.377604 0.245923 0.613633 0.46047 0.136673 
0.587516 0.54711 0.0375184 0.660388 0.423799 0.101727 0.533958 0.636646 0.132034 
0.60437 0.528948 0.146633 0.575459 0.525015 0.211688 0.592456 0.433782 0.220543 
0.613367 0.62432 0.266298 0.603632 0.718613 0.0390311 0.555283 0.610676 0.064745 
0.569225 0.734643 0.0985819 0.566335 0.69848 0.157533 0.599813 0.710545 0.268228 
0.591214 0.634783 0.174361 0.643769 0.641137 0.211021 0.572089 0.672329 0.224555 
0.596856 0.759193 0.159875 0.586878 0.666561 0.0959828 0.63929 0.788065 0.0390305 
0.561492 0.797454 0.0908873 0.541663 0.814453 0.189882 0.545191 0.832309 0.261833 
0.615984 0.775016 0.265252 0.515693 0.87344 0.210834 0.62528 0.709303 0.200977 
0.600467 0.821907 0.221532 0.584854 0.837732 0.035238 0.560737 0.860893 0.0930518 
0.565898 0.909947 0.039701 0.503852 0.944009 0.0315433 0.552003 0.909727 0.260436 
0.598139 0.967375 0.265549 0.528358 0.863122 0.146493 0.5056 0.923936 0.172303 
0.535184 1.00366 0.0511287 0.522579 0.916692 0.106148 0.473437 1.05947 0.189414 
0.468469 0.995852 0.154872 0.537299 0.988912 0.13793 0.518022 1.04702 0.269178 
0.570666 0.944853 0.192285 0.436429 1.06674 0.0347798 0.538835 1.1246 0.033571 
0.573033 1.06498 0.0351735 0.50404 1.06538 0.0328709 0.552231 1.10791 0.0955185 
0.522974 1.05036 0.104512 0.542933 1.00872 0.209158 0.503009 1.12573 0.204977 
0.538468 1.23419 0.0892115 0.574092 1.21176 0.0322875 0.563652 1.17694 0.123136 
0.522964 1.09155 0.152627 0.604673 1.08738 0.268671 0.539953 1.23817 0.15927 
0.533998 1.21192 0.237685 0.566537 1.13037 0.180367 0.557166 1.07326 0.214648 
0.553613 1.13711 0.259467 0.639697 1.20756 0.0429974 0.621867 1.20983 0.110384 
0.464694 1.21505 0.100692 0.647537 1.23607 0.221533 0.595401 1.19896 0.186314 
0.773195 1.16813 0.205904 0.67898 0.130889 0.0403544 0.693135 0.119928 0.113108 
0.721563 0.0322029 0.192811 0.68206 0.134141 0.265515 0.697799 0.0946061 0.181747 
0.636835 0.262402 0.0387346 0.695582 0.315571 0.0396716 0.702319 0.225391 0.150272 
0.704348 0.266533 0.267353 0.640243 0.406276 0.17428 0.695213 0.199856 0.267446 
0.678538 0.32724 0.266694 0.662875 0.336256 0.137831 0.680092 0.45832 0.0418304 
0.658829 0.494978 0.0970808 0.652058 0.356922 0.0777059 0.685847 0.466867 0.158144 
0.649591 0.461682 0.216917 0.681684 0.2785 0.104427 0.729022 0.412034 0.197493 
0.69067 0.353752 0.201256 0.611667 0.644951 0.0351634 0.661694 0.525189 0.0349335 
0.635374 0.558146 0.0890076 0.595329 0.599841 0.119998 0.647942 0.607251 0.156667 
0.663789 0.683695 0.262134 0.638096 0.546291 0.269081 0.687014 0.582387 0.207244 
0.616944 0.578562 0.208829 0.672954 0.546964 0.150109 0.677594 0.516217 0.206227 
0.6288 0.715187 0.122606 0.658211 0.654635 0.0916809 0.697209 0.57266 0.0974387 
0.708542 0.627236 0.139057 0.717235 0.647275 0.206758 0.660933 0.823287 0.268702 
0.66518 0.671978 0.159662 0.624121 0.802602 0.11685 0.647598 0.876505 0.039101 
0.689521 0.761317 0.0794832 0.708178 0.702313 0.0852504 0.680243 0.762818 0.14902 
0.637154 0.775531 0.203095 0.696827 0.715738 0.204924 0.613312 0.868341 0.265677 
0.58284 0.872041 0.182056 0.614989 0.969158 0.0372509 0.668651 0.984647 0.0764882 
0.630225 0.868724 0.106254 0.643814 0.927029 0.0885893 0.58687 0.907988 0.125663 
0.609982 0.967215 0.138997 0.634629 0.98455 0.209796 0.677202 0.849027 0.14791 
0.635687 0.922479 0.233718 0.643476 0.865104 0.207771 0.632759 0.916335 0.169101 
0.630516 1.10744 0.0300652 0.641962 1.03976 0.0399022 0.694406 1.09218 0.0358862 
0.574689 0.956597 0.0908505 0.594291 1.0209 0.0955712 0.667549 1.04232 0.115741 
0.578018 1.03051 0.26046 0.613928 1.02521 0.161774 0.672067 1.03116 0.184148 
0.616526 1.08959 0.091089 0.622439 1.14328 0.13848 0.696791 1.16509 0.0370849 
0.595626 1.15369 0.0646216 0.582355 1.07774 0.146633 0.623903 1.05588 0.217061 
0.741221 1.13184 0.0835705 0.636123 1.13271 0.223595 0.661123 1.09225 0.167623 
0.603593 1.19543 0.263609 0.749177 1.21236 0.033559 0.790908 1.18192 0.100996 
0.689488 1.16939 0.106123 0.673024 1.19849 0.168428 0.677248 1.18715 0.260795 
0.721905 0.0830601 0.0341633 0.753727 0.12187 0.0765061 0.717969 0.0495453 0.118282 
0.783905 0.0581036 0.125905 0.723428 0.0415356 0.26252 0.73526 0.105186 0.242883 
0.707659 0.24197 0.0350566 0.751003 0.181841 0.0391964 0.768497 0.2658 0.0304536 
0.73669 0.178371 0.110512 0.727806 0.156544 0.172569 0.756035 0.167182 0.26341 
0.774038 0.230096 0.155355 0.769704 0.243077 0.262195 0.731597 0.209562 0.21272 
0.703096 0.391199 0.0363955 0.765161 0.327566 0.0314089 0.720381 0.333463 0.103389 
0.747315 0.251882 0.0926542 0.73278 0.418603 0.0925336 0.764609 0.373937 0.127032 
0.703717 0.387217 0.14096 0.747963 0.320095 0.263464 0.734436 0.281501 0.197697 
0.697082 0.420239 0.260496 0.726538 0.513258 0.0867939 0.752375 0.463475 0.0378108 
0.797136 0.48439 0.0864364 0.754863 0.468902 0.134883 0.790069 0.419381 0.170312 
0.675018 0.493722 0.266643 0.804117 0.511626 0.26417 0.773543 0.400651 0.260578 
0.740853 0.480962 0.246543 0.718348 0.548256 0.263651 0.669658 0.598699 0.0391247 
0.694285 0.664483 0.0315315 0.737255 0.532979 0.175475 0.761345 0.581147 0.121625 
0.678797 0.613628 0.2674 0.752734 0.585192 0.216702 0.743396 0.621775 0.267491 
0.673541 0.72386 0.0325061 0.747967 0.748253 0.111858 0.758295 0.691926 0.0384588 
0.727901 0.754868 0.031209 0.748461 0.655725 0.0970946 0.740142 0.693248 0.261125 
0.687967 0.816682 0.20884 0.726923 0.692005 0.146686 0.751513 0.744905 0.17872 
0.694147 0.744466 0.269539 0.702119 0.933786 0.0399808 0.717406 0.853017 0.0346111 
0.68155 0.824682 0.0844473 0.694168 0.887915 0.0954064 0.739545 0.809703 0.159461 
0.738294 0.838241 0.260085 0.733538 0.775386 0.229484 0.681295 0.885742 0.265523 
0.712727 0.877469 0.206897 0.688084 0.950871 0.268911 0.717688 1.02025 0.0398204 
0.725599 1.06863 0.0896742 0.727603 0.952204 0.107563 0.689413 0.946991 0.205771 
0.672059 0.97549 0.138818 0.693105 0.917891 0.150536 0.730623 1.00895 0.155328 
[...]
POINT_DATA 1274
FIELD FieldData 10
VELOCITY 3 1274 double
0.0006420297927 -0.0012013893561 -0.00022951834249 -1.953018131e-05 -0.0008410264943 -0.00035374467105 0.00023969137946 -0.00057892953252 1.9542944884e-06 
0.00048588599395 -0.0019257486968 0.0015547975966 0.00027800230216 -0.00093107157727 -0.00019043125553 4.0631324843e-06 -0.00045097628605 0.00010861030977 
0.00012747911628 -0.000497194524 -0.0001980354438 -0.00051435362789 -0.00078158107961 -0.00014840844713 0.00052077410718 -0.0012797506873 -0.000418615053 
0.00053076964079 -0.00065925015599 0.00025831974749 0.00033442000122 -0.00057871508239 -0.00018548829711 0.00042968557154 -0.0011135870906 2.5964147047e-05 
0.00045471797053 -0.0011270974453 8.9616404734e-06 0.00043252687342 -0.00094726509821 0.00013697228219 0.00024499464019 -0.00071800510586 0.00022304203569 
0.00045748410641 -0.00099946278181 0.00016175751469 0.00038418889069 -0.00090347649136 0.00013279254404 0.00035071406829 -0.00096131145969 2.8594996554e-05 
0.0010222882633 -0.0014661870719 -0.0002336115902 0.00027268048911 -0.0005899364997 -0.00011932672091 0.00035639164625 -0.00086110204859 9.5413050016e-05 
1.9567766225e-05 -0.00098043419153 0.0001095528174 0.00031380610092 -0.00081310596457 0.00017105291346 0.00027006150334 -0.00067270149923 -6.0505610077e-05 
0.00039197671823 -0.00091483171319 -0.00014454404944 0.00030332038949 -0.00074561594858 0.00028607472012 0.00026503167997 -0.00074118588062 -2.0366199167e-05 
0.00047795045144 -0.0011690582201 -5.9498868135e-06 0.00054186210828 -0.0010823867187 -0.00076816315664 0.00032917100532 -0.00068286308394 -0.00046147902333 
0.00014609389311 -0.0015262706838 5.9180252045e-06 0.00034989517272 -0.00073179354663 -3.9084674024e-05 0.00030362676929 -0.00077760323266 -4.5702491931e-05 
0.00051592437943 -0.0011892132904 -0.00028871171515 0.00094383405138 -0.0011933328423 0.00020315086297 0.00029230999812 -0.00071126738325 -0.00026123433963 
0.00052487609147 -0.0010950374327 -0.0002090627567 0.0003470147259 -0.00076784684017 -4.0865369316e-05 0.00020392730407 -0.00077779205912 -0.00011307870662 
0.00022213568272 -0.00053093896496 9.0011656462e-06 0.00073563245691 -0.0013653688815 -0.00044093029315 0.00017830166894 -0.00088487623081 -0.00020845442537 
0.00035360468754 -0.0008554440381 -0.00014568136167 -5.785704537e-05 -0.00072392496196 -1.8090504084e-05 0.00027936053484 -0.00067139544283 -0.00011910616756 
0.00081560826141 -0.0013283322515 -1.3856962163e-05 0.00019802803398 -0.00048671346286 -9.3485937426e-05 0.00034384417428 -0.00082293988779 9.2732068243e-06 
-0.00020392156255 0.0002311250975 -2.5897798763e-05 0.0013529670489 -0.00036032427454 0.00019928259577 -0.00038034788817 -0.00024726837916 0.00034829610166 
0.00055910977595 -0.00067985498779 0.00055100411381 0.00071781868417 -0.0017931181127 -0.00094967602955 0.00023795601359 -0.00078713450551 0.00033399537005 
0.00011536590252 -0.00041282154671 0.00053236085833 0.00020853816738 -0.00041511339695 -0.00016754446709 8.7432473166e-05 -0.00018399215904 1.0170849992e-05 
0.00028004308368 -0.00013432174779 -0.00012935719939 0.00056070149533 -0.0013757920574 -0.00098680661468 0.0001602270629 -0.00089354252023 -0.00012805570867 
-0.0002089434474 -0.0010048348576 0.00039106967439 0.00060070248398 -0.00049064702897 0.00011399510621 -8.8048885706e-05 -0.0010947793396 0.00011947361111 
0.00011272809748 -0.00047246381685 -5.504381815e-05 0.0003072457735 -0.00077537579948 -9.2441002725e-05 0.00020640309134 -0.00026158581166 0.00070147941874 
0.00017616924098 -0.00062264964641 0.00068121313879 0.00048620772224 -0.00077264785242 -0.00019610512937 0.00072593771322 -0.00056144791976 -0.00016375954327 
-0.00090655121715 -0.0012443156598 -1.40633149e-05 0.00025041990665 -0.00038498758313 -0.00038652774458 0.00021955535024 -0.0010577000456 1.6197757736e-05 
0.00010963668555 -0.0010186287935 -0.0005801645545 0.00036038095099 -0.00065140540069 -7.3010045544e-05 0.00018349787544 -0.0010514928838 2.0249376013e-05 
0.00088539964494 -0.0016922906127 0.00083637929025 0.00082411620973 -0.0011276724661 -7.055252754e-06 0.00034906594388 -0.0011094985723 6.6217297831e-05 
0.00032721917961 -0.00066797249336 -2.0960308295e-06 0.00093555380731 -0.00071809835816 -0.00010568203625 0.00033971998456 -0.00093737486707 -2.0990554947e-05 
0.00014814711793 -0.00052074893433 -0.00019049906392 0.00081595309798 -0.00034467836313 -0.00020940059808 0.00042926724715 -0.0012317441792 0.00012448705584 
0.00055801668549 -0.00094828660133 0.00025115649493 0.00035612943546 -0.00098216349206 -0.00023936415489 -6.653953904e-05 -0.0010945883472 0.00019259487668 
-9.4300760634e-05 -0.0011174839856 -0.00097381230483 0.00020852387983 -0.0011098996735 -1.6259656081e-05 -6.4946308827e-06 -0.00096122718255 4.4785932634e-05 
0.00062804275239 -0.001142026734 -0.00019516561225 -0.00079989350037 -0.000757858192 -1.5613716891e-05 0.00045247518915 -0.0010745329425 -2.7948299662e-05 
0.00040722222355 -0.00071253006811 -4.4725954042e-05 0.00016610611728 -0.0010471306665 9.4752544341e-06 6.966745729e-05 -0.00097609948241 1.9453160171e-05 
0.00021468084617 -0.001077426555 0.00034407186132 0.00077455008569 -0.00089444186453 0.00032386602287 0.00083043509921 -0.00054662464694 0.00011111634513 
4.119222552e-05 -0.0010362385684 0.00075165649915 0.00033781274125 -0.0006856478135 -0.00010431588316 4.3302824989e-05 -0.0010105308796 3.1190034611e-05 
0.00071362789307 -0.0014404844005 0.00035979347649 0.00012922741772 -0.00079112426356 -2.4157409182e-05 0.00010066542871 -0.0013116547262 -0.00019887005827 
0.00017050543295 -0.0007023965912 -6.8524778513e-05 0.00024967709726 -0.00088559842163 7.7934497285e-05 0.00026446153961 -0.00075188603332 -3.0160602759e-05 
0.00030832106675 -0.00036345869449 9.699448005e-06 0.00028507294859 -0.00073874286127 -4.7031334338e-05 -0.00027337767457 -0.0012547005022 0.00026855488802 
0.0010684829817 -0.0011600782286 0.00011401048468 0.00033108424727 -0.00067504847903 -8.8722454552e-05 0.0002430567546 -0.00062436842635 -9.6292449578e-06 
-0.00039501577773 -0.00081459569843 8.336992355e-05 0.00095819531057 -0.0015208962147 -0.0010643990516 -0.0003224953891 -0.0011180038073 -6.4731046026e-07 
-1.0258307292e-05 -0.00067757524081 5.9857337355e-05 -6.7116810557e-05 -0.0005157334706 -1.728738999e-05 0.00014103256479 -0.00087489906916 -2.6038454207e-06 
-0.00011687821531 -0.00081457839637 1.6405310395e-05 0.00084025259404 -0.00095332919743 0.00033691480319 0.0003392866134 -0.0006163200211 0.0013008817144 
0.00090896048671 -0.0011375079894 5.7804324656e-06 0.00054598816008 -0.0011784215497 -0.00034038874188 0.00018695751721 -0.00072170160018 -0.00031456432414 
-0.00010267630692 -0.00080710735313 -7.4837238044e-06 5.9799899022e-05 -0.0011096826622 0.00020311732094 0.00020437315581 -0.00085611308428 0.000326111338 
-0.00013803070393 -0.00040509657642 -8.6991873979e-05 0.0007323795821 -0.00099189812561 1.1739280663e-05 0.00027779842847 -0.00080491562643 -4.693919265e-05 
0.00022786936393 -0.00077960644596 -0.00049484072422 4.7535454281e-05 -0.00095233303405 -9.4500606257e-05 0.00088570924158 -0.0013658734986 4.9163110068e-05 
0.00051631710252 -0.001551250646 -0.00012435719326 -0.00016851285472 0.0001298192908 0.00018333739848 7.2732237618e-05 2.1976505415e-05 -9.8473954625e-05 
-0.00016454875171 -4.6895251967e-05 0.00057853193289 -0.00012924965144 -0.00028346602606 0.00026420664288 9.723232709e-05 0.00033087663882 0.00066840003533 
7.3619802626e-05 0.00048172934948 0.00065577787706 1.2930137694e-06 -8.0701265863e-05 0.00082324246341 -0.0015758047029 -0.0014542425191 3.1567042822e-05 
0.0010934871457 -5.7208952438e-05 0.00017727606453 6.28077859e-05 -0.00031795823031 6.2708626278e-06 0.00063532487613 -0.0010299577066 0.00024941886596 
-0.00056727590894 0.00048814621032 0.0004658621515 0.00040388061333 -0.0001427764756 0.0015952788097 -0.00041996167457 -0.00039206789121 -0.00089796915197 
0.00069101153407 -0.00064706894445 -7.0051862844e-05 0.00072743612017 6.8675409753e-05 -0.00017144359872 0.00087144806222 -0.00092075777535 -0.00078407347743 
0.00071918093561 -0.00073493954176 0.001071962479 0.00075545746981 -0.00078686592954 -0.0002131013269 0.00060120900457 -0.00075122720863 -0.0002123680137 
0.00026284555952 -0.0012357920679 -5.7135567852e-05 0.00037151371941 -0.0012109465921 2.4817215214e-05 -0.0002717520107 -0.00063779555447 0.00027079004527 
0.00018091415194 -0.0004508002566 -0.00026226309266 0.00032228669027 -0.0011179137458 0.00046246218718 4.8133765913e-05 -0.00070334326434 -6.5516503572e-05 
0.00092806138707 -0.0010168021756 0.00042672788628 0.00065291953358 -0.0012025433733 0.00010554710248 -6.3027707691e-05 -0.0012714712158 0.00050915506156 
-0.0011323131862 0.00014454925019 0.00030685309086 0.00012968518426 -0.00022673014331 -0.00025332979611 -0.00032931782571 -0.00090753721459 -4.7164841405e-05 
0.00039917500601 -0.0012084545527 -0.00010156936848 -0.00083343551173 -0.00043319457538 -6.2487410377e-05 8.9154398679e-05 -0.00073323623263 -4.5114997099e-05 
-0.00025968019434 -0.00030336194934 3.2122158249e-05 -0.00030944807449 -0.00075563202833 0.00037768347505 0.00024657277043 -0.0013237435918 0.00071567037964 
-2.8851030092e-05 -0.0014995335025 -0.00014175925336 5.6826041241e-05 -0.00049859603181 -0.00047161966626 0.00010312509863 -0.0014019048422 -0.00018453659088 
0.00042085602048 -0.0016423284743 1.8715214921e-05 0.00044852202344 -0.0015609803956 1.3622058835e-05 0.00023386371106 -0.00066094335072 -3.4092179974e-05 
0.00029713756102 -0.00062875803106 0.00013836981015 0.00039914511181 -0.00074858443205 -0.00021114716781 8.2589839242e-05 -0.0012419985842 -0.0008389522775 
0.00048495716969 -0.0015441075196 5.4829552291e-05 0.00027108963096 -0.0011144779219 -0.00063763288841 -0.00021882626312 -0.00092287651877 0.00061381910003 
0.00046138938995 -0.00067937220921 6.6159797896e-05 0.00028925035899 -0.0010030961626 -0.00060375485666 -0.00010835323797 -0.0010699960284 2.7185858927e-06 
-0.00011502589837 -0.00065497145365 -0.00014346788323 0.00026451792733 -0.00087466020725 -6.8861905646e-05 -0.00039453558518 -0.0014733564203 1.1552996699e-05 
-5.2802870671e-05 -0.0012903223182 7.6874233538e-06 0.00019446073245 -0.0017748676773 1.4934807769e-05 -0.00013373213158 -0.00055475374744 5.098662269e-05 
0.00011078381285 -0.00059530907033 0.00015269502943 -0.00051896502898 -0.00098822358613 -0.0002877450417 0.00015839115269 -0.00088340439324 -0.00043871123914 
0.00061828914342 -0.00063731474028 0.00023154414986 0.0005359534277 -0.00021946499879 4.6865149036e-05 0.0005568999602 -0.00093219087539 -0.00018960683819 
5.3941900173e-06 -0.0014431758848 0.00073271295515 0.00012732119871 -0.00076864394533 -1.8329540614e-05 0.00064312015551 -0.0010629936465 0.00027004403238 
5.0048893481e-05 -0.0019296339417 -0.00067354678531 0.0010216155275 -0.0014023043192 -0.00021789954286 -0.00096419937842 -0.00088434049451 0.0001331292342 
-0.00026556773131 -0.0012315948072 1.0432054946e-05 0.00056681941459 -0.00041401782743 -0.00033164438033 0.00055643494471 -0.00092951951845 -0.00033967184445 
0.0007258936592 -0.0012352370552 0.00011573726663 0.00030790125489 -0.00098203317092 0.00013893400981 0.00066658405445 -0.0013010843758 -9.4393522551e-05 
1.8277889528e-05 -0.0012555712778 -5.2931190511e-05 -6.0596744314e-05 0.00013065347639 -7.6864907032e-05 -8.7502331987e-05 0.00015219563631 0.00018650841032 
3.2920604195e-06 1.1769238339e-05 0.00031063551265 0.00040018039498 -0.0012195350841 2.242976338e-05 -0.00025809960018 0.00062869005181 0.00045235184459 
-0.00073243517164 -0.00046433875072 -7.4480291563e-05 -8.4091941199e-05 -0.00022914893172 -0.00041166933124 -0.00059068122893 0.00048060983006 0.00049242036561 
0.00027590357024 -0.00050980982445 -0.00033941271153 -9.2336558279e-05 -0.00062601269537 -0.00073153205382 -0.00031087157468 -0.00065763160823 -0.00011516640494 
0.0017573390974 0.00031309397899 0.00032749095516 -0.00044783861187 -0.00070695315738 0.00051643239157 -0.00074147161985 -0.00056961085161 -0.00061882546436 
-0.00046916784677 -0.00038948320078 -3.6961229023e-06 0.00084092551822 -0.00050707138173 0.00038520004471 4.2382438393e-05 -0.00073403849353 -0.00039927194776 
0.00066903955942 -0.0011360781124 3.0989530592e-05 0.00039092171826 -3.2810479976e-05 -9.1585090747e-05 0.00086191949646 -0.00034723482418 0.0012644975055 
0.00015313360902 0.00028748562493 0.00010748153624 0.00029511398039 -0.0010933330147 0.00014612773291 0.00025181689785 -0.00042557927539 9.6460505756e-05 
0.00011494913354 -0.00038121642056 0.00048960685434 0.00041361383466 -0.00050579918138 -0.00039125030958 0.00038575509268 -0.0015342963996 0.00035616040869 
0.00034086252567 -0.00089529974927 3.1046588549e-05 0.00089262622573 -0.001162021388 -1.533694437e-05 0.00052651727672 -0.00098261274792 0.00021859130418 
0.00047551739181 -0.00076205357185 0.00040885870499 0.00086301076668 -0.0003261698328 -3.4804634135e-05 0.00097345129476 -0.00096284622115 0.00015564712068 
0.00084698324753 -0.0011824521285 0.00011094342724 0.00014983438396 -0.0012738782275 0.0006393877475 0.00082692292349 -0.0013663065015 -0.00056393299801 
0.00031679167094 -0.0011650808581 0.00085904389911 -0.00030669409641 -0.00057607508693 -0.00041944978687 0.00083234953286 -0.0011307200685 -0.00010814458393 
0.00070787160437 -0.00080912902756 0.00055763126839 0.00051100952048 -0.0012777532752 0.00046660403588 0.00024970910717 -0.0011177629264 3.1588626648e-05 
-0.00023260588218 -0.0014758423052 -6.9089605288e-06 0.00028862559458 -0.0014027552955 0.00074195601915 -4.1334343405e-05 -0.00043586575604 -0.00010789364439 
0.00071904852913 -0.0015268942077 0.00031175317843 0.00013543982204 -4.7336180401e-05 0.00041251146365 -0.00013250542854 -0.0016211361192 -7.3174802466e-06 
-0.0001970571802 -0.00093195688177 0.00067136234299 0.00016464491561 -0.0014907907935 2.3841451663e-05 -0.00015265451111 -0.0010901356631 0.00019847076719 
0.00066113119836 -0.00091024344527 6.5111705674e-06 0.00022565756957 -0.00088731195465 -0.00026046405183 0.00032075798033 -0.0012932468494 -0.00033422272183 
0.00012860112535 -0.0012734238307 -0.00010762913152 0.00058963062556 -0.00078295813173 0.00015051495339 0.00092753921462 -0.0012500331952 7.3744846658e-05 
-0.00026271443227 -0.00098490979369 -0.00014344343658 -2.0465558955e-05 -0.001889146893 3.2591407928e-05 -0.00010890848391 -0.0016104968368 6.1506274321e-05 
0.00013805793897 -0.00050190432035 -1.2491574149e-05 -5.6958252336e-05 -0.001375634382 -0.00047140988127 -0.0001321737327 -0.0012248459658 4.3268297794e-05 
7.0164617864e-05 -0.0013267921447 -0.00025891601635 0.00046795727246 -0.0013298470078 5.233588036e-05 -0.00023741617337 -0.00080231994037 -0.00020292434387 
-4.1119022098e-05 -0.00066781742724 -0.00011869195988 0.0005911024783 -0.0011528758726 -0.00013044506906 0.00062047661734 -0.00090897481179 -0.0001440408523 
-0.00018671573263 -0.00097296783683 -0.00028459534634 0.0005528671433 -0.0010102517434 -0.00044767694219 -3.19829041e-05 -0.0012458411336 -1.6253621479e-05 
-0.00067051453543 -0.0010394373402 9.7797682239e-05 -0.00020517353474 -0.0017087873052 -0.00028314538541 -8.3344508296e-05 -0.00064965618806 -0.00016634429414 
0.0001199989646 -0.0010157955166 -4.0369062459e-06 0.00016229692683 -0.00076241290255 2.2340704964e-05 -1.4011392111e-05 -0.0011671814917 0.00017554934412 
-0.00010623330356 -0.0013863656233 -6.8790089771e-05 0.00015964754513 -0.0014500381166 -1.7355154705e-05 0.00060021826486 -0.0015309878737 0.00012285486514 
0.00010206182018 -0.00079244318207 -1.5414095494e-05 0.0007391125742 -0.00064854514963 0.00010151455385 -1.5886047002e-05 -0.00088282461546 0.00057194005668 
0.00024061421233 0.000558241527 0.00011183037012 0.00062783902031 -0.00046876905985 0.00055331219588 -3.7138499908e-05 0.00030683742506 0.00098966589983 
-0.0011769388929 -0.0013604804373 0.00072234460338 0.00019711197585 -0.00039363724189 -1.3895255615e-05 0.00077291830753 0.00054915833535 0.00048979765336 
0.00037220218088 3.2434621515e-05 0.0016909430669 -0.00056178118966 -0.00044330938134 -0.00057309151329 0.00020454832507 0.0014931328095 -0.0010605597203 
0.00012819038987 0.00013984160344 0.0009825383561 -0.00091137437298 0.00030140710672 -0.0011682031866 0.00011988405183 -0.00015225000215 0.0001825774436 
-0.0001105971315 -0.00034176920063 -0.00047255222756 -1.1330006414e-05 -0.0010788751914 0.00046038459607 0.0017220213504 0.00017277029347 -8.1896349558e-05 
0.00054879009461 -0.0001854541483 4.2480838788e-05 0.00030642634809 0.00025226119721 0.00026537067909 0.000339020403 -4.6423344147e-05 3.6319746197e-05 
0.0002302884794 -0.00031919215275 -0.0003536173763 0.00054207542091 -0.00047536870316 0.00011101441386 5.6396959537e-05 8.761483487e-07 0.00032495892327 
-0.00013018957619 -0.00052049819479 -0.00017347185354 0.00028699390878 -0.00063700801452 -2.4846878747e-05 -0.00095007708912 -0.00035807116345 -0.00050343955803 
0.00024288599102 0.00031732625428 -9.252739007e-05 -4.0547974132e-05 -0.00065634393205 0.0010225912343 -0.00050127365408 -7.4719895623e-05 -0.00014875722762 
-0.00084457217503 -0.00046477867093 -0.00036513507335 0.00080196618573 6.5065756691e-06 0.0012324496562 0.00050951126198 -0.00029198387025 0.00086538252151 
0.00060537032114 -0.0020992801017 7.502261069e-07 0.00039808398821 -0.00055789235759 0.00034963339648 -1.5688205237e-05 -0.001911963897 -4.6269840976e-05 
0.00055914324248 -0.00014055371543 -0.00091761877345 7.3590499081e-05 -0.00074887352662 3.1348902478e-06 9.5344375731e-05 -0.00063523835749 2.1456066085e-05 
-0.0001877482992 -0.00025548740175 0.00017469396071 0.00069654532343 -0.0010784564542 0.00061718093554 0.00032506477769 -0.00034553931992 0.0010530989086 
0.00031130820848 -0.00072568196247 -1.9661331321e-05 0.00057276058078 -0.00012126692346 -0.00048528664291 0.00034810792805 -0.00072209900897 1.1539146294e-07 
-0.00010317241991 0.00011990612215 -0.00065145481668 -0.00040296160157 -0.0012594127188 -0.00027531889461 -0.00043126148398 -0.00088531889315 -9.8761998659e-05 
2.6733552403e-05 0.00092112485777 -0.00014658073345 2.3668912549e-05 -0.0007165377555 0.0003898911407 0.00015981095369 -0.0011924774352 -7.265119547e-05 
0.00068856679504 -0.0013686216519 1.8758164234e-05 0.00040736426223 -0.0011265219265 0.00060986483286 -0.00026698822771 -0.00096486307698 -5.569324498e-05 
0.00033592874269 -0.00097184684696 -5.6640375573e-06 0.00018004856366 -0.00090365410912 -0.00013938175205 6.4200994663e-05 -0.00095005971002 -7.2883878949e-05 
5.8987429822e-05 -0.0010839093753 -5.9667659952e-05 -0.00034525222945 -0.00095882431391 -0.00020226066067 0.00078433726967 -0.0008235819237 4.6812479204e-05 
-0.00084223549544 -0.0017205889309 3.747135836e-05 -0.00023785673872 -0.0020178280493 0.00080006987471 -0.00048557638972 -0.00063097980691 0.00015249653556 
-0.0007884972871 -0.00072987706421 0.00066280821809 0.00030707106046 -0.0009521673008 4.653943832e-06 2.8796736339e-06 -0.0011462755636 -5.644699955e-05 
0.00016371599886 -0.0011820304349 -5.2291288761e-05 0.0007051695537 -0.0016181957392 -3.6112937858e-05 -9.0350852302e-05 -0.0017633120228 8.8487121733e-05 
-0.00014338582308 -0.00059089977849 0.00028831260339 -0.00023764366244 -0.00088430813761 -0.000273016065 0.00034824136628 -0.0010710272439 -0.00046125034928 
-4.3869517862e-05 -0.00032366693928 -2.3894604079e-06 0.00011706384285 -0.0014937427611 -3.6669216732e-05 -0.0001352558971 -0.00097820055112 -0.00013393744276 
-9.7902623739e-05 -0.00092587089453 0.00013440477052 0.00024563575607 -0.0013631533604 2.9482326782e-05 0.00017405154324 -0.0012810754437 0.000164287142 
1.7484336098e-05 -0.0015313609773 -4.3462622249e-05 0.00023107205785 -0.00079769292746 8.2478388262e-06 -0.00035831681825 -0.001790082214 -9.834662764e-05 
-8.4098056717e-05 -0.0017583523267 1.7735431408e-05 0.00049637301363 -0.0010952389839 -5.6485291547e-05 0.00018893092605 -0.0011933703753 0.00022201465997 
-0.00018228599016 -0.0012729631398 0.00014406606877 0.00031836075066 -0.00059999287186 -0.00021843858011 -8.396279405e-05 -0.0010336652104 -2.9059862962e-05 