# vtk DataFile Version 4.1
vtk output
ASCII
DATASET UNSTRUCTURED_GRID
POINTS 1274 float
0.513355 0.552963 0.0379535 0.469739 0.650649 0.105165 0.488372 0.596796 0.268458 
0.494975 0.587023 0.0985465 0.423901 0.755399 0.0323155 0.424563 0.768188 0.119887 
0.47576 0.636953 0.212961 0.459534 0.669538 0.268649 0.394292 0.844224 0.0587668 
0.398554 0.812392 0.165112 0.446258 0.698491 0.214657 0.433101 0.738103 0.265757 
0.363192 0.901931 0.0319695 0.344073 0.967431 0.0523235 0.381482 0.878031 0.146401 
0.395119 0.843638 0.231726 0.345662 0.956786 0.25996 0.314376 1.03821 0.0387204 
0.391012 0.913094 0.0865105 0.448277 0.898621 0.110072 0.332534 0.995471 0.130087 
0.408959 0.914484 0.21847 0.310507 1.03751 0.265121 0.352175 0.929088 0.187694 
0.281962 1.101 0.0487881 0.328221 0.987218 0.200826 0.286693 1.10802 0.260298 
0.258097 1.16161 0.0336643 0.357486 1.11495 0.103452 0.302062 1.06847 0.109221 
0.289826 1.2508 0.0382188 0.303071 1.04488 0.200276 0.283778 1.09998 0.172256 
0.33349 1.2547 0.0923675 0.385537 1.15697 0.0378136 0.275788 1.14789 0.110174 
0.421886 1.1492 0.106244 0.26092 1.14999 0.208393 0.340126 1.10638 0.211224 
0.218756 1.25597 0.0332148 0.320426 1.18507 0.0540454 0.319717 1.15624 0.173631 
0.244951 1.19852 0.164421 0.287397 1.18274 0.26484 0.2393 1.22157 0.0934329 
0.372527 1.23069 0.0356631 0.236623 1.23005 0.236325 0.215938 1.25613 0.149375 
0.540679 0.470551 0.030208 0.611574 0.295553 0.0940192 0.595632 0.358492 0.122166 
0.597029 0.347338 0.198374 0.576272 0.388445 0.2665 0.610504 0.313403 0.262293 
0.540996 0.469285 0.209708 0.508996 0.557144 0.218455 0.603511 0.328613 0.0358989 
0.566574 0.417756 0.159193 0.484075 0.623875 0.0378759 0.608378 0.474155 0.0462592 
0.546086 0.474731 0.0985097 0.549718 0.447781 0.268475 0.56529 0.571164 0.262772 
0.527589 0.512036 0.15964 0.551067 0.668224 0.0308597 0.44551 0.711178 0.0789192 
0.517604 0.697487 0.106575 0.471896 0.752874 0.178312 0.55153 0.547829 0.101993 
0.523067 0.657673 0.266703 0.446417 0.696771 0.145631 0.415221 0.776914 0.21451 
0.50105 0.680251 0.169628 0.554931 0.576943 0.16815 0.494302 0.779484 0.0922563 
0.535839 0.759958 0.146373 0.459366 0.814078 0.0363739 0.508469 0.723821 0.0397541 
0.484621 0.817332 0.150779 0.437281 0.835376 0.112914 0.364852 0.89343 0.269731 
0.499561 0.768965 0.260788 0.538871 0.616927 0.219104 0.563531 0.747193 0.220245 
0.468072 0.815106 0.213635 0.507172 0.705083 0.226243 0.460001 0.888788 0.0399065 
0.520417 0.852946 0.0355578 0.536018 0.790358 0.0326226 0.45408 0.875169 0.177589 
0.495782 0.849241 0.0950791 0.46423 0.869571 0.260663 0.43872 0.80302 0.269008 
0.417484 0.951478 0.0373636 0.373602 1.08885 0.0325883 0.466176 1.00403 0.0331276 
0.400943 0.996104 0.09521 0.416264 0.947511 0.151069 0.468914 0.964004 0.0915135 
0.485367 0.940221 0.263002 0.419703 0.971994 0.26148 0.535245 0.982343 0.2689 
0.46093 0.950694 0.2034 0.384017 1.02345 0.032397 0.365625 1.05371 0.0847726 
0.463217 1.03184 0.0901426 0.362927 1.06248 0.158318 0.395714 1.00418 0.1968 
0.441832 1.0506 0.264237 0.377265 1.02864 0.267487 0.483254 1.00265 0.236752 
0.457656 1.13529 0.0385419 0.470559 1.08267 0.123092 0.427587 1.04145 0.139246 
0.360805 1.08979 0.269155 0.527051 1.1779 0.175786 0.489988 1.10147 0.267884 
0.407744 1.08776 0.213422 0.429998 1.13306 0.264219 0.445499 1.1197 0.166991 
0.358732 1.15991 0.260112 0.51125 1.18667 0.0382613 0.498862 1.14628 0.120325 
0.437525 1.20513 0.0341931 0.370042 1.20093 0.100998 0.381305 1.13283 0.165765 
0.338852 1.2363 0.260951 0.453351 1.16696 0.207857 0.402863 1.20603 0.222049 
0.46945 1.19044 0.26612 0.48763 1.25464 0.0362705 0.312831 1.21189 0.137311 
0.460749 1.24853 0.225622 0.300369 1.21235 0.203924 0.475096 1.2111 0.169897 
0.373583 1.22719 0.163847 0.639393 0.231989 0.179922 0.563891 0.413354 0.0317146 
0.660099 0.192787 0.0573575 0.660436 0.28788 0.213322 0.640267 0.240891 0.263508 
0.668824 0.174738 0.207406 0.642432 0.224151 0.115802 0.631054 0.404497 0.036343 
0.591926 0.422271 0.089322 0.527204 0.509426 0.265845 0.606133 0.485949 0.263218 
0.617286 0.291336 0.158831 0.639674 0.377206 0.246568 0.614079 0.459669 0.135857 
0.588512 0.546022 0.0375218 0.660644 0.422567 0.101114 0.534573 0.635488 0.13129 
0.605474 0.528057 0.146982 0.576582 0.52355 0.212008 0.592928 0.432885 0.220407 
0.613382 0.623193 0.266297 0.603839 0.716902 0.0390331 0.555347 0.609282 0.0644929 
0.57015 0.732786 0.0990345 0.566723 0.696883 0.158115 0.600105 0.70905 0.268226 
0.592327 0.633553 0.175229 0.645272 0.638805 0.211502 0.571681 0.671436 0.224479 
0.597586 0.757441 0.159982 0.587314 0.66609 0.0955583 0.63933 0.786438 0.0390313 
0.562068 0.7949 0.0909818 0.540971 0.813104 0.189988 0.545584 0.831169 0.26183 
0.616564 0.773447 0.265256 0.515399 0.872092 0.211424 0.625673 0.707652 0.201569 
0.600549 0.819762 0.221377 0.58518 0.836378 0.034756 0.561023 0.858337 0.0930206 
0.565927 0.908132 0.0397014 0.504055 0.942506 0.0315439 0.552234 0.908602 0.260438 
0.598647 0.96603 0.265548 0.528672 0.861871 0.146411 0.50618 0.921826 0.171043 
0.536004 1.00171 0.0514925 0.523036 0.914529 0.104862 0.47308 1.05802 0.190568 
0.469272 0.994717 0.155306 0.537877 0.987836 0.137457 0.518445 1.04535 0.269178 
0.570545 0.943736 0.192199 0.436628 1.06515 0.0347799 0.538707 1.12324 0.0335699 
0.573328 1.06326 0.0351738 0.504218 1.063 0.0328709 0.552282 1.10665 0.0955017 
0.522778 1.04917 0.104188 0.542499 1.00749 0.208988 0.503191 1.12432 0.204851 
0.5391 1.23286 0.0892591 0.574668 1.21046 0.032288 0.564291 1.17542 0.122858 
0.522822 1.08912 0.153237 0.605177 1.08601 0.268672 0.540551 1.23659 0.159332 
0.534161 1.2108 0.237664 0.56736 1.12834 0.179691 0.557065 1.07192 0.214842 
0.553739 1.13534 0.259467 0.640322 1.20591 0.0425428 0.62254 1.20819 0.109942 
0.465397 1.21353 0.100874 0.647842 1.2344 0.22145 0.595835 1.19708 0.186265 
0.773174 1.16582 0.205746 0.678939 0.130993 0.0399776 0.693208 0.11975 0.114427 
0.721562 0.0322024 0.193211 0.682131 0.133976 0.265509 0.697662 0.0949438 0.183269 
0.636853 0.261891 0.0387341 0.696616 0.315162 0.0396592 0.701865 0.225501 0.150887 
0.704665 0.265764 0.267352 0.640129 0.405285 0.173597 0.695501 0.199646 0.267448 
0.67902 0.326546 0.266702 0.66338 0.336159 0.138109 0.678495 0.457318 0.0407703 
0.655742 0.493615 0.0967417 0.651225 0.354613 0.0775225 0.685241 0.466322 0.157301 
0.650445 0.45999 0.216835 0.682253 0.278539 0.104532 0.729703 0.41186 0.198012 
0.691065 0.353754 0.201542 0.612045 0.643258 0.035163 0.660292 0.524339 0.0349369 
0.635743 0.558049 0.0893752 0.595725 0.600177 0.119819 0.648405 0.605414 0.156767 
0.664181 0.682442 0.262131 0.639381 0.544635 0.269081 0.687649 0.581065 0.207427 
0.617576 0.577488 0.209441 0.674219 0.545463 0.150251 0.678575 0.514846 0.206451 
0.629984 0.713743 0.122745 0.658396 0.65237 0.0927116 0.69783 0.571977 0.0977087 
0.709332 0.625624 0.140604 0.717016 0.646339 0.206496 0.66214 0.821133 0.268701 
0.665855 0.670619 0.160398 0.624465 0.801343 0.117214 0.648178 0.874688 0.0391012 
0.689693 0.759759 0.0793717 0.70798 0.700407 0.0860021 0.68105 0.761881 0.148968 
0.637898 0.773829 0.203161 0.697152 0.714974 0.205153 0.614179 0.865824 0.265677 
0.582335 0.870697 0.183218 0.615002 0.967356 0.0372509 0.668524 0.983146 0.0765631 
0.631508 0.867351 0.106482 0.644405 0.925615 0.0881757 0.587224 0.906086 0.124829 
0.610092 0.965603 0.138878 0.635386 0.982927 0.209871 0.678532 0.847225 0.147879 
0.635555 0.920639 0.233669 0.643547 0.862158 0.207013 0.632334 0.914531 0.169059 
0.631176 1.10666 0.0300628 0.642246 1.03788 0.0391371 0.694785 1.09025 0.0358781 
0.575056 0.955064 0.0905288 0.595374 1.01912 0.0955165 0.667801 1.04115 0.115327 
0.578514 1.02916 0.260362 0.614189 1.02347 0.161956 0.672607 1.02937 0.183609 
0.616498 1.08814 0.0907238 0.623047 1.1417 0.138181 0.697253 1.16316 0.0370853 
0.595515 1.15234 0.0645756 0.582089 1.07541 0.145926 0.624272 1.05446 0.217041 
0.741933 1.13015 0.0835052 0.636696 1.13133 0.223629 0.661302 1.09057 0.167702 
0.603615 1.19376 0.26361 0.749854 1.21019 0.033559 0.792188 1.17939 0.101678 
0.690499 1.16815 0.106133 0.673512 1.19657 0.168616 0.677324 1.18581 0.261292 
0.721586 0.0828658 0.0341654 0.7534 0.120987 0.0771369 0.718035 0.0493924 0.119941 
0.784039 0.0578758 0.127106 0.723593 0.0411334 0.262292 0.735749 0.10507 0.243813 
0.707658 0.241393 0.0350602 0.749986 0.180534 0.0391968 0.768152 0.266085 0.0304554 
0.735951 0.178717 0.110626 0.727123 0.1562 0.172445 0.756091 0.16654 0.263424 
0.773711 0.229389 0.154708 0.76987 0.241714 0.262929 0.73198 0.209039 0.212731 
0.703508 0.390847 0.0363944 0.766057 0.327903 0.0314003 0.721328 0.333231 0.10336 
0.747477 0.250979 0.0926537 0.733876 0.417568 0.0924955 0.765 0.373239 0.128055 
0.704274 0.387679 0.14154 0.748453 0.319143 0.262911 0.733236 0.280935 0.197326 
0.697117 0.42072 0.260496 0.725183 0.511407 0.0884835 0.750773 0.463216 0.0378087 
0.795936 0.482692 0.086648 0.755057 0.468034 0.136531 0.790994 0.418503 0.171204 
0.675952 0.49182 0.266651 0.804512 0.511729 0.264178 0.772866 0.39854 0.260575 
0.741763 0.480573 0.24559 0.718149 0.547235 0.263651 0.670485 0.597575 0.039117 
0.693269 0.664022 0.0315327 0.738144 0.531435 0.176525 0.761877 0.57952 0.122442 
0.678807 0.612482 0.267401 0.753394 0.584756 0.216393 0.743389 0.620724 0.267492 
0.673498 0.723737 0.031373 0.747496 0.746733 0.111872 0.757675 0.690466 0.0386658 
0.72832 0.753958 0.0312116 0.74756 0.654216 0.0971631 0.740369 0.691764 0.261129 
0.688989 0.814647 0.208742 0.727642 0.690503 0.147425 0.751938 0.743834 0.178812 
0.682999 0.747713 0.269539 0.702179 0.932461 0.039982 0.717888 0.851132 0.03461 
0.681841 0.822878 0.0843541 0.694469 0.886145 0.0950712 0.740465 0.808648 0.159279 
0.738862 0.835781 0.260086 0.727039 0.766729 0.23248 0.681216 0.883998 0.265521 
0.712442 0.875977 0.20805 0.688118 0.949115 0.268914 0.71792 1.01818 0.0398211 
0.726068 1.06696 0.0892374 0.728666 0.949752 0.107477 0.689518 0.944437 0.205833 
0.672079 0.974512 0.13896 0.692491 0.916545 0.149938 0.731292 1.00715 0.15478 
[...]
POINT_DATA 1274
FIELD FieldData 10
VELOCITY 3 1274 double
0.00048129017718 -0.0012890911961 3.9998084557e-05 0.00029466487687 -0.0005830381251 -0.00014501600275 0.00056381729899 -0.0013859852039 -3.565785388e-06 
0.00087254995997 -0.00041736603011 -0.0019312376907 0.00059999988229 -0.00095014155288 -5.4115633789e-05 0.00025595011261 -0.00056398102191 0.00030834350883 
0.00018461023921 -0.00052123064427 -0.00037167519713 2.0351633948e-05 -0.0010522863997 -5.1427628511e-05 0.00035069613847 -0.00084304799346 -0.00019838568815 
-3.2995735078e-05 -0.00065797441005 0.00022883129968 0.00044301791981 -0.00060233962176 0.00069778744506 0.00045368254659 -0.001123621565 5.9670092153e-06 
0.0004759638547 -0.0012830697016 5.0813792548e-06 0.00054542926823 -0.0014084931072 0.00057190820949 0.00026821773919 -0.00059783394846 0.00020796240649 
0.00030028913745 -0.0008870830216 6.1365178788e-05 0.00032698745155 -0.00084603109075 8.6173795394e-05 0.00064603146868 -0.0015281561851 1.9916263948e-06 
0.00083339037556 -0.0012803127551 -0.00019475161422 0.00087006802928 -0.00054886369843 0.0001644801276 0.00046609229218 -0.0011043946102 0.0002944366723 
0.00011866277811 -0.00089787073687 0.00013154164372 0.00018077998192 -0.00044612187732 -0.00021785851013 0.00021373053928 -0.00058380360308 -5.1925302718e-05 
0.00058908423021 -0.0014422161554 -0.00071881598538 0.00033792197839 -0.00063514197716 0.00022334873963 0.00016648245609 -0.00045239578548 2.6752809519e-05 
0.0006309966167 -0.0014949215979 -1.2442859375e-05 0.00057907125051 -0.0011859939621 -0.0010267794218 0.00029958148324 -0.00078379220777 -5.7054568871e-06 
2.9217163969e-05 -0.0016203071924 -8.6818927175e-06 0.00022426219687 -0.00065299361383 1.719575358e-06 0.00031882548839 -0.00078904596835 -0.0003503007927 
0.00031708765394 -0.00099929756917 -0.00029152033894 0.00098475210863 -0.001099992613 0.0004141415734 0.00032985473371 -0.00084235750548 -0.00017451545615 
0.00031589268835 -0.00076352414261 -0.00030777602451 0.00033259984997 -0.00077644397784 -0.00033902479177 0.00013918723382 -0.00080593168641 -8.3155430676e-05 
0.00012379768836 -0.00033584306068 1.0787245426e-06 0.00069017612125 -0.001424580644 -0.00034155979296 0.00023856046453 -0.00070413277613 -0.00011049698723 
0.0003282544557 -0.00071939061292 -0.00026969367225 -5.9824190968e-05 -0.00043032338458 3.7512635631e-06 0.0003623322716 -0.00086176672578 -0.00038130103677 
0.00065394709133 -0.0012646506863 2.6009736604e-05 0.00011729859311 -0.00031378999844 -0.00016737902273 0.00030986193046 -0.00077425145743 -0.00043898813456 
-0.00024042740313 0.00093813564944 5.2718391097e-05 -0.00041238975359 -0.00087151319009 -0.00011330912258 -1.2337995116e-05 -0.00032376556124 0.00071599736808 
0.00022293121111 -0.00053792623716 0.00058115609905 0.00015120235007 -0.0021215030167 -0.0010345746013 0.00034296266986 -0.0009655171869 0.0004058413998 
0.00034798128153 -0.00074113762105 -0.00060657032154 0.00047168631146 -0.00098894563381 -0.00038325850512 0.00011317520345 -0.00021195483768 9.0126166089e-06 
-2.1050104794e-05 0.00061597566343 -0.00081166409531 -4.1471320966e-05 -0.00020332550891 -6.4809850357e-05 -0.0015068811892 -0.0014154345513 -0.0015108695262 
3.6492326369e-05 -0.00019757133343 -0.00013791872005 0.00041960797487 -0.00036103444771 0.0001453509132 -1.8703807629e-05 -0.0006677664488 -6.0774118468e-05 
3.9043599136e-05 -0.00038293966457 0.0002083091113 -0.00026734701816 -0.0012769111735 0.00029708321371 7.2309106465e-05 4.3354852725e-05 0.00032965478504 
0.00012952965525 -0.00049596509266 0.00034576131175 8.7632687371e-05 -0.00075448285538 -0.00040605721766 0.0002347318651 -0.00032360841563 0.0010777142382 
-4.9738615101e-05 -0.00097976115216 0.0001051987218 0.00027640536029 -0.00056740276804 -0.00062846867404 0.0004763297718 -0.0010208261001 -2.21987077e-05 
-7.5050121653e-05 -0.00043261307337 -0.00023159490779 0.0011364676732 -0.00056957913736 0.00031153514833 0.00019944838324 -0.00069745391328 -0.0001365832013 
0.00040317564579 -0.0016593218961 0.00052172399418 0.00038533377692 -0.00083799343232 1.4148240699e-05 0.00045034113639 -0.001063128183 0.00023880426541 
0.00039821241352 -0.00096026392479 0.00013013842533 3.0807711713e-05 -0.00048043353098 -8.9277768369e-05 0.00041932497535 -0.00086276603863 5.4962660449e-06 
0.00020886342815 -0.00065983736411 -0.00023959025059 0.00026555728368 -0.0011158431271 0.00048309419613 0.00039647725053 -0.0012308413322 0.00012631938973 
0.00023227676422 -0.00077608568516 3.1930455712e-05 0.00054979077205 -0.0014004736681 -0.0010787563533 2.6939408781e-05 -0.00087218917115 -8.5115375494e-05 
8.7018374002e-05 -0.0011580571018 0.00062174131219 0.00029265181855 -0.0010219303255 -1.5260366601e-05 1.5988859903e-05 -0.00090847817708 -5.0928515627e-05 
0.00047466246922 -0.0010047521757 -0.00031991559067 -0.00051556299096 -0.00092712024227 0.00011359813699 0.00029232264918 -0.0010025794542 3.8327388312e-05 
0.00074259264852 -0.0004244878092 8.8462108888e-05 0.00016037917775 -0.00090662636252 -8.7912207771e-06 0.00042461075002 -0.00095149309268 -5.2253448597e-06 
0.00069027304206 -0.00089189250478 0.00027407664522 0.00075948587949 -0.0010195612261 0.00022543697734 0.00084123205158 -0.00049183185493 0.00021132804531 
-0.00018300199788 -0.00097855572333 0.00084497815253 0.00020106888928 -0.00058246597863 -0.00022784401129 0.00013953442084 -0.0012857084596 -5.6951700944e-06 
0.00092394213028 -0.0015708064194 0.00023133952893 0.00054826383577 -0.0016274791158 -2.0849078373e-06 0.00020833771482 -0.001341157172 -0.00021641203803 
-0.00048438871303 -0.00070082886899 -5.4484471709e-05 0.00013648624849 -0.00077639723942 -0.00019970841711 0.00020803037153 -0.00073434721091 -2.9072447222e-05 
6.4430296561e-05 -0.00081045376051 -4.0268022806e-05 0.00014504019181 -0.00073200078506 0.00037960664922 0.00012906781373 -0.0011955569139 0.00033213104124 
0.00086394033706 -0.00132519111 -7.2319148763e-05 -0.00020520741567 -0.00061745372849 -0.00029626708038 0.00023635385453 -0.00088276139178 0.00052870827273 
-0.00027853908861 -0.00082467729216 -1.675289805e-05 0.0003815868543 -0.0010609785472 0.00031378701521 0.0003575798216 -0.0010245717529 -3.6062267132e-05 
-0.00011179737703 -0.00077411112889 0.0001423938424 0.00046201098686 -0.00090317965819 2.6694036745e-06 0.00013934921026 -0.0010231200644 0.00029187152856 
-0.00024254405163 -0.00083230682084 -4.6802384832e-05 0.00023912467265 -0.00064498764663 -0.00021742632326 0.00022204092294 -0.00087692182206 0.00028944827728 
0.00077322244278 -0.00093217449696 -1.219202249e-05 4.1272213973e-05 -0.0010974474099 0.0003278439869 0.00014575673162 -0.00076226625763 -0.00045410264379 
-0.00012390408078 -0.00080047080162 4.4226101692e-06 -8.2765827944e-05 -0.00084244152878 7.7574367484e-05 0.00047134516973 -0.00060962732503 0.0010585784784 
0.00025979436366 -0.00074311630706 -1.2593648604e-05 0.00044717570173 -0.00056977909206 -1.1003054932e-05 0.00011927656496 -0.00070456341602 -0.00011596126046 
0.00055472997468 -0.00067027007575 -2.1510453673e-05 7.136003406e-06 -0.00080578071571 -0.00012205749639 0.00027247887596 -0.0010258941771 0.00014695016614 
8.5436171259e-05 -0.0019976442985 0.00070037212867 -0.00012578039472 0.00049192095349 0.00049992451145 -0.00025416259095 0.00079177003001 -0.00029440879257 
-8.6602138849e-05 -0.000230903066 0.00059277789545 -0.00083083011023 -0.00051402023497 -0.00028668989125 -0.00016494823552 0.00043683078623 0.00049734463354 
-1.7548408156e-05 0.00015047853569 0.00013963754267 0.00019455669363 0.00043084534508 -0.00030264947629 -0.0023270895976 -0.0021757031339 0.0002879215024 
0.00062743094216 9.9167650666e-05 6.9223738818e-05 1.6435502854e-05 -0.00068825056682 2.4818125508e-05 0.00041007124901 -0.00098652235335 1.3974273406e-05 
8.4863662264e-05 0.00099527435861 -0.00044708236828 0.00054233588634 -0.00020593647969 0.0015318981209 0.00046154982678 -0.0008958264466 0.00053806198303 
0.00062692372496 -0.00064305012132 -1.7200475908e-05 0.00080954042626 -0.00032097822555 -0.00083881572882 -0.00055456525612 -0.00062406779313 0.00046332000697 
0.000483475121 -0.00057144786897 -0.00071303859236 0.00071271217581 -0.00081153099869 0.00053051259789 0.00019895670841 -0.00054867256454 0.00049450041006 
-0.00012921751039 -0.0002675528113 7.7198854357e-05 4.3275703358e-05 -0.0011027031025 5.4012278308e-05 0.00036250458564 -0.0010743779452 -0.00058267730004 
0.0002064904656 -0.00058477462756 -4.5847842781e-05 0.00068211343517 -0.0013000161769 7.1360849559e-05 0.00019026551033 -0.00085306554832 7.6996992744e-05 
0.00040357223678 -0.00061704519938 0.00079778876664 0.00080033354221 -0.0014147722367 0.00031014715481 -7.6287277556e-05 -0.00078878156009 -4.5565148488e-06 
-0.0013374731638 0.00083393329024 0.00010178289954 0.00020480550608 -0.00078972736909 -0.00040522256386 0.00046450505342 -0.0011595057743 4.3113050292e-05 
0.00029798722411 -0.0018098736852 0.00019291461814 -0.0004666402689 -0.00058012786179 -0.00011045811945 0.00024724310824 -0.00083585647572 -3.7834143031e-05 
-0.00039738321066 1.3443634345e-05 -7.7775124649e-06 -0.00010589090853 -0.0008150790471 0.00041653463246 0.0001783702907 -0.00060465729928 0.000300074352 
6.2322252634e-05 -0.0010857844778 -0.00031318498331 0.00037937761958 -0.0011942607428 -0.00037163569947 -9.3675304586e-05 -0.0017271429999 -4.649767755e-07 
-1.8176308746e-05 -0.0012175876778 -7.4915307944e-05 0.00045999364826 -0.00098677791804 3.1239142526e-05 -1.3141072272e-05 -0.00087459405976 -1.8969488861e-05 
0.00023696605204 -0.00097476783899 0.00012998250521 -0.00010657512638 -0.00067575556663 -0.00014071807591 0.00038373854252 -0.0013151425582 -0.00067298008318 
0.00050053864987 -0.0011619761192 0.00050916779157 0.00034086694164 -0.0012283234205 -0.00060839543464 -3.7773912434e-05 -0.0010136713685 0.00059236012199 
0.00066520706015 -0.00080484725615 0.00024880162957 0.00052336935101 -0.00062558380821 -0.00034296437978 0.00020888016407 -0.0011064615242 5.8885333134e-05 
1.6616231918e-05 -0.00051847459465 0.00015285122293 2.4211515094e-05 -0.001098763288 5.6101944753e-05 -4.4387229078e-05 -0.00079608065274 -2.0965365934e-05 
0.00031148885988 -0.0011517558251 -2.1922287084e-05 7.3741566325e-05 -0.0015993971656 -1.2512960086e-05 1.4579902167e-05 -0.00095246692881 -0.00011921207107 
-0.00048990299248 -0.00077469363861 -0.00020062011664 -0.00040349120998 -0.00064587146877 -5.8318619728e-05 -8.914080192e-05 -0.00086503261195 0.00014744052853 
0.00036739348915 -0.00080615543128 5.4820421913e-05 0.00030064601185 -0.00074960989686 -1.301021598e-05 0.00025483993153 -0.00092456027831 1.7810478414e-05 
-0.00015995920802 -0.0014433397818 0.00016360659862 -0.00012437108965 -0.00077201300239 4.23431207e-07 0.00026203603412 -0.0010160411773 8.9207101354e-05 
8.8985482413e-05 -0.00030178556386 -1.0627267117e-05 0.00010965341177 -0.0011749917529 -0.0003088809754 0.00023708662032 -0.00080702678738 0.00034376989474 
8.2191552239e-05 -0.00063947297277 -4.9674976062e-06 0.00031380883852 -0.0014128244504 -0.00033868162458 0.00033142787587 -0.0012498719235 -0.00037996660849 
0.00039972622434 -0.0008053120112 0.00016479882822 0.00033494492169 -0.0010220277401 4.5968093404e-05 0.0003338148888 -0.0009458699177 -6.075939381e-05 
-9.1933327731e-05 -0.0013664959699 1.038392149e-05 -5.6081733815e-05 5.0321087773e-05 -0.00013009850782 -0.0001727525924 -0.00015155750868 0.00059065304082 
-1.0593849513e-06 1.6729045146e-05 0.00055014169624 -0.00013366299004 0.00016710685529 -7.5317280335e-05 -2.9536803658e-05 0.00029306080731 0.0011900815213 
-0.0004502380133 -0.0001643664794 -0.00026791795855 -0.00092528722445 -8.9275530693e-05 -0.00054628689534 -0.0010633029934 0.00089456740433 0.00052166992757 
0.00013324708859 -0.00050082270284 -0.00023921055539 -4.160268143e-05 -0.00089284049825 -0.00055782822643 0.00012593381461 7.8959337753e-05 -2.5348757379e-05 
0.0024758758221 -0.00020215298016 3.9546926761e-06 -0.00098065368654 -0.0007670899149 0.00060109890724 -0.00081253823876 -0.00071328099162 -0.00071636609965 
-0.003050011447 -0.0012743338447 -0.00042117653596 0.00063131458741 -0.0006189098706 0.00052574170432 -0.00083496657753 -0.00017448621362 -0.00079176637428 
0.00065347694518 -0.0018135317841 -0.00020021427346 0.001672252753 0.0006037165761 0.00061054075842 0.00029695608175 -7.6004225267e-05 0.00013596109154 
0.00038564653133 0.00026693441247 0.00022508668259 0.0004542815952 -0.00084897499189 0.0001102021509 -0.0017697724379 -0.00076191821695 -0.00010475796405 
0.00020529804869 -5.7365527993e-05 0.00031384527495 -1.6107019514e-06 0.00046124483537 3.2877684023e-05 0.00030835691716 -0.0013558748195 -0.00017581808402 
0.00015755524806 -0.00075617768866 -1.5458620473e-05 0.00095414037364 -0.0012073639881 -4.3389505975e-06 0.00034909604197 -0.00090869811834 0.00010609561729 
0.00026251190033 -0.00064956361205 0.00019111667332 0.00089254972412 -3.3840962598e-05 0.0010495119777 -0.00067673305221 -0.0014864162209 3.1948539396e-06 
0.00055609425389 -0.0010423791841 0.0001004449622 -1.9984640304e-07 -0.0014422200719 0.0005001218992 7.0483519899e-05 -0.0021941379068 -0.00052202773763 
7.0621484334e-05 -0.00094912979494 2.7448686907e-05 0.00016582576132 -0.00082634557268 0.00020810087559 0.00090187374071 -0.0014208292509 6.03189099e-05 
9.8395186345e-05 -0.0014125289512 0.00022502838379 0.00056311987723 -0.0009097692859 0.00022320233847 0.00038925463366 -0.00094134353407 9.9181789291e-06 
0.00011957286457 -0.0008066090306 6.3868087101e-05 -0.0007144755214 -0.00078548502592 -0.00037256687722 -2.5933168692e-05 -0.00020380846285 -1.084832296e-06 
0.00057524131485 -0.002279437778 0.00032229224153 0.00028559318654 -0.0013472187184 -0.00032301809563 0.0004057226505 -0.0012677621187 -4.3691052159e-06 
-0.00025424492227 -0.0007306361872 0.00071315635121 0.00028371523615 -0.0013543224987 -5.4539240076e-06 8.2426701397e-05 -0.00082654305633 0.0001366175196 
0.00080224794538 -0.00076602284392 7.8795145366e-05 0.00043684362261 -0.00078437608397 -0.00012980163018 0.00028405161478 -0.0014125551393 -0.00043883047516 
-0.00011222458671 -0.00084572175681 -2.8585094685e-05 0.00030143322598 -0.00091729389225 6.5515550302e-05 0.0010221094365 -0.00095726556443 -1.9900028993e-05 
-4.6992715093e-05 -0.0012205627903 -4.5153500019e-06 0.00019452244665 -0.0014821293137 -0.001187358014 -0.00042444643402 -0.00063568089837 -0.00037231148416 
0.00052494534074 -0.00053972707127 7.4424600016e-06 0.0002454624912 -0.0013847320366 -0.00064287307312 0.00027277948221 -0.0013764843976 -5.5060589823e-05 
0.0004205809436 -0.0010589007083 -0.00018847848167 0.00099479171509 -0.0012388741557 -9.3869932258e-05 0.00058005491982 -0.0004630932037 -9.0825511274e-05 
0.00032836616423 -0.00091123343771 8.6404679514e-05 0.00033586649393 -0.00081262940029 0.00013119929429 6.5479252066e-05 -0.0011223966104 -0.00033089777163 
-8.4287831435e-05 -0.0011189920802 -0.00034633477665 0.00019600387923 -0.0010750745587 -3.5339117836e-05 0.00039754895931 -0.0013814148156 -1.9393246466e-05 
5.8234141571e-05 -0.00088730609006 -0.00010483976367 -0.00019849660339 -0.0012225130511 -0.00033081422392 0.00014721979258 -0.00086048184123 0.00017272404266 
0.00055758353959 -0.00087788477055 0.00023633158082 0.00018483101548 -0.00088776247545 2.3137140553e-05 0.00017694915853 -0.00096271369187 8.8886716527e-05 
5.4741216939e-05 -0.00067865572863 -1.8148350995e-06 0.00048329818505 -0.0015512405176 2.2213611089e-05 0.00086755125772 -0.00146389448 0.0010794385429 
0.00068121332985 -0.00061205206098 -4.1692528787e-06 0.00043183803866 -0.0010571945002 0.00013939128221 -4.3179666823e-05 -0.00096709617263 0.00035263433507 
0.0003993131669 0.00035679500139 -3.2001136123e-05 0.00015024973942 -0.0006215554109 0.00059629985333 6.0426461636e-05 3.4177909073e-05 0.0012399241698 
-0.00034483469229 -0.0011574891581 0.0011119831587 3.9173344705e-05 -1.5098604607e-05 0.00017840436924 0.00052512158883 0.00079763762528 0.0007185607761 
0.00018749657457 -0.00015989151371 0.0014992161901 -0.00099915843382 -0.0011925963225 -0.00038970072728 0.00018391398211 0.0012481526652 -0.0010641377519 
0.00062695308854 -0.00052663781458 0.0018072766736 -0.00040083180294 0.00026530575617 -0.00069252307734 4.7558061486e-05 -0.00055353946314 -0.00024970801637 
-7.27376784e-05 -0.00051383831696 -0.00037178866169 0.00016831628147 -0.00078808041352 0.00023858908678 -0.0003449262597 -0.00063074420162 -0.00019911173513 
0.00037322325555 -0.00026546380236 0.00021840292825 0.00060129814398 -0.00091745695629 0.00082856591648 0.00037341422748 -6.0881103744e-05 -5.6472699859e-05 
-0.00019803523818 -0.0009675615681 0.00052559111831 0.00042913077766 -0.00034324266888 2.240871317e-05 0.00077631514854 0.00012249462591 0.0004515947965 
7.6997433142e-05 0.00019999943986 0.00048800581732 0.00037201217043 -0.00077016062361 -0.00033269081129 -0.00013540184928 -0.00020781660974 0.00098819156896 
-5.1720369632e-05 0.00051521354002 -0.00021402954832 -0.0013282337625 -0.0014907963987 0.0011373539283 -0.0011851577245 -0.00055743216245 0.00011619545521 
-0.0016371524273 -0.00043886524953 -0.00049305495867 -0.00020537940807 -0.00076691055646 0.0011302164455 0.00026340949921 -0.00057164693642 0.00034211514125 
0.0013186489153 -0.0005962351604 -5.650156457e-06 0.00021132465478 -0.00018009275106 1.6003937843e-05 -0.0005660924358 -0.0012020704962 -7.3441789425e-05 
0.00063568357538 -0.00020423007189 -0.00050814444874 -0.00046600616615 -0.00070290266317 3.4726346914e-06 0.0010267663598 -0.00049954701264 -0.00020287672982 
-0.00035404635611 -0.00051746088349 0.00020560088278 0.00050709745048 -0.0011700597324 0.00027316370606 1.5729886118e-06 -0.00046730047841 0.00077129591233 
-0.00015115613806 -0.00075941335391 -4.8630199884e-05 0.00037804398402 -0.00072326709397 -3.7351602415e-05 -0.0001351698263 -0.00069630645816 0.00021595549286 
9.2219976549e-05 -0.00067289869229 -9.4438292473e-06 -0.00079813973915 -0.00088816084137 -9.1609047948e-05 -0.00026607210881 -0.00094552627055 3.2170679373e-05 
0.00027827163034 -0.0012379711359 0.00018510350871 -0.00035124908467 -0.00061972034117 -0.00019705695956 0.00043533109764 -0.00072831644099 5.3800249291e-05 
0.00016357826479 -0.00078540061159 -0.00019292876149 0.00013904072311 -0.00096019527578 0.00013207928693 -2.1101608693e-05 -0.00035058033013 7.7171798658e-05 
-0.013674624713 0.0032380224501 -3.6463048343e-05 2.7736771309e-05 -0.00067053886286 2.1305205226e-05 0.00033183770527 -0.00086743306207 -2.4515674633e-05 
-0.00020182039033 -0.00065973367086 -0.00053472897428 0.00067487078492 -0.0011776213388 -3.3840263691e-05 0.00031888619243 -0.00055969548178 -0.00020051824864 
0.00032270708075 -0.0014094902401 3.0735564054e-06 -0.0062403056674 -0.00055014082617 0.0068830161498 7.1312469204e-07 -0.0010385443433 -9.5091571602e-06 
-0.00020610322582 -0.0010477047116 0.00049294979486 0.00026452418676 -0.001076522416 1.8312396136e-05 0.00030703620417 -0.0011837015173 4.8106800098e-06 
0.00049748983738 -0.00095075423778 -0.00052267972099 0.0005202796104 -0.0011596467791 -7.8132254361e-05 -0.000136086573 -0.0012552221927 -2.3912260888e-05 
-8.2239882851e-05 -0.00041805274129 -0.00018881629087 -0.00041317128831 -0.0006237479771 -0.00030344270767 0.00049252763934 -0.0013642557783 -0.00027144921721 
0.00033237889188 -0.0010557271227 -1.1105456327e-05 0.00011119851028 -0.0011779500112 -4.670580111e-05 9.8171518828e-05 -0.0014152525549 -0.00018866514704 
0.00029606654182 -0.00096401312834 0.00011373036974 0.00076448673559 -0.0011466097829 -6.9333299297e-06 9.6997004335e-07 -0.0014049518727 4.7271871667e-05 
0.00052417386932 -0.0014140953319 1.795446257e-07 0.00084883827246 -0.00061308004722 -0.00011646285669 5.5859549688e-05 -0.0012150836649 -0.00040896700647 
-7.9955755743e-05 -0.0012334558278 1.4135533181e-05 0.00034852677912 -0.0012094107382 -0.00015684439026 0.00050033566817 -0.00096192619355 0.00083014996015 
0.00027096543083 -0.0011485723751 -1.1434247276e-05 4.2075818057e-05 -0.00081829658507 0.00031148001287 -0.00014015477931 -0.0011934922213 1.5710551513e-05 