# vtk DataFile Version 4.1
vtk output
ASCII
DATASET UNSTRUCTURED_GRID
POINTS 1274 float
0.511973 0.556307 0.0379519 0.468948 0.652583 0.105418 0.48719 0.599666 0.268458 
0.49419 0.588912 0.099508 0.42298 0.757631 0.032314 0.423951 0.769675 0.119043 
0.475094 0.638569 0.213083 0.459871 0.671842 0.268647 0.392928 0.847538 0.0595212 
0.397855 0.81409 0.16401 0.445096 0.701315 0.215328 0.431867 0.741099 0.265758 
0.361985 0.904861 0.0319702 0.342749 0.970646 0.0513116 0.380675 0.87999 0.146341 
0.39405 0.846231 0.232029 0.344515 0.95957 0.260014 0.312987 1.04158 0.0387199 
0.388924 0.916168 0.0869244 0.446606 0.900408 0.110267 0.331389 0.998252 0.129652 
0.408647 0.91686 0.218427 0.309863 1.03907 0.265122 0.351479 0.930775 0.188047 
0.280541 1.10445 0.0481953 0.327458 0.989071 0.200299 0.286049 1.10958 0.260298 
0.256841 1.16466 0.033664 0.355939 1.11799 0.105552 0.301226 1.0705 0.109744 
0.289478 1.25457 0.0382188 0.302307 1.04674 0.200323 0.28293 1.10204 0.172764 
0.332191 1.2578 0.0931652 0.383386 1.16013 0.0369443 0.274951 1.14992 0.110642 
0.420466 1.1521 0.106677 0.260072 1.15205 0.2089 0.339808 1.10875 0.21156 
0.218267 1.25716 0.0332147 0.318794 1.18845 0.0547963 0.319205 1.15844 0.17385 
0.244115 1.20055 0.164893 0.287623 1.18429 0.26484 0.238452 1.22363 0.0940418 
0.370647 1.23404 0.0356631 0.236165 1.23116 0.236834 0.21509 1.25819 0.149984 
0.540913 0.471142 0.0302099 0.611323 0.296169 0.0940671 0.595102 0.359796 0.120448 
0.596688 0.348156 0.196569 0.575809 0.389583 0.266496 0.609604 0.315567 0.261295 
0.540228 0.471156 0.210026 0.508208 0.559075 0.219382 0.603215 0.329334 0.0358989 
0.566383 0.418233 0.15905 0.483037 0.626397 0.0390731 0.610295 0.47751 0.04791 
0.545604 0.475894 0.0985304 0.549249 0.448916 0.268474 0.564762 0.573646 0.262774 
0.527019 0.513423 0.159497 0.549717 0.670089 0.0308564 0.444892 0.712677 0.078059 
0.517297 0.698943 0.105579 0.470669 0.755184 0.178169 0.550387 0.549084 0.10067 
0.523479 0.660374 0.266704 0.445841 0.698166 0.146599 0.414102 0.779635 0.214265 
0.500694 0.682732 0.170817 0.553661 0.578553 0.16851 0.493539 0.782517 0.0916974 
0.534513 0.762599 0.146103 0.457492 0.816869 0.0363739 0.508143 0.726448 0.039753 
0.48384 0.819587 0.150705 0.435827 0.837144 0.113464 0.363709 0.896207 0.269731 
0.498696 0.771153 0.260787 0.538495 0.619421 0.219029 0.562748 0.749398 0.220362 
0.467541 0.817375 0.213619 0.505916 0.708079 0.227295 0.459797 0.891524 0.0402987 
0.520524 0.856233 0.0357945 0.534793 0.793348 0.032622 0.454226 0.87774 0.177869 
0.494086 0.852223 0.0958231 0.46602 0.871935 0.260664 0.43821 0.805947 0.269013 
0.416054 0.953346 0.0373632 0.373254 1.09166 0.0325887 0.465141 1.00633 0.0331288 
0.399604 0.999035 0.0944063 0.414337 0.950076 0.150107 0.466999 0.965699 0.0911261 
0.485581 0.943071 0.26112 0.419636 0.97429 0.261481 0.534829 0.98563 0.2689 
0.458577 0.955355 0.202988 0.382972 1.02682 0.0323973 0.365164 1.0574 0.0853339 
0.463258 1.03368 0.090415 0.362283 1.06471 0.158624 0.394936 1.00623 0.196951 
0.441281 1.0524 0.264238 0.37667 1.03055 0.26735 0.483496 1.00581 0.235637 
0.455469 1.13838 0.0385399 0.470036 1.08482 0.123023 0.426735 1.04378 0.138761 
0.361254 1.09197 0.269156 0.524507 1.18137 0.176583 0.49039 1.1048 0.267882 
0.408 1.0898 0.213071 0.429682 1.13498 0.26422 0.445135 1.12245 0.166631 
0.359154 1.16209 0.260112 0.50988 1.1889 0.038084 0.497372 1.14888 0.121098 
0.435527 1.20819 0.0341933 0.368813 1.20402 0.101417 0.380816 1.13501 0.166238 
0.339021 1.23841 0.260952 0.452791 1.16962 0.207641 0.401858 1.20848 0.220772 
0.469533 1.19208 0.266121 0.486391 1.25691 0.0362708 0.311893 1.21412 0.137438 
0.45969 1.25077 0.226768 0.300084 1.21461 0.204169 0.472751 1.21472 0.169835 
0.372153 1.2318 0.163621 0.639641 0.231388 0.17857 0.5645 0.411882 0.0315353 
0.659963 0.193112 0.0554133 0.661309 0.287562 0.212663 0.639851 0.241882 0.26351 
0.668936 0.174468 0.206853 0.642895 0.223052 0.114772 0.632114 0.407837 0.0363387 
0.592682 0.42454 0.0894356 0.52671 0.510556 0.265844 0.604375 0.488862 0.262798 
0.617378 0.291104 0.158792 0.63874 0.377874 0.245367 0.613782 0.46104 0.137156 
0.586996 0.548114 0.0375183 0.660502 0.424507 0.102021 0.533515 0.637573 0.132288 
0.60367 0.529483 0.146509 0.574609 0.526223 0.211535 0.591877 0.434267 0.220416 
0.613211 0.625343 0.266298 0.603491 0.719904 0.0390329 0.5551 0.611529 0.0649702 
0.568655 0.736009 0.0983155 0.565876 0.699673 0.157162 0.599697 0.711486 0.268228 
0.590307 0.635823 0.174065 0.642757 0.642816 0.21076 0.57213 0.673447 0.224302 
0.596234 0.760454 0.159922 0.5865 0.667354 0.0962138 0.639704 0.78907 0.0390296 
0.561219 0.798329 0.0907756 0.541854 0.815387 0.18984 0.544939 0.833192 0.26183 
0.615714 0.775995 0.265249 0.516339 0.874765 0.210231 0.62498 0.710666 0.200347 
0.600382 0.823578 0.221565 0.584827 0.838325 0.036313 0.560617 0.863129 0.0934021 
0.565275 0.912048 0.0397004 0.503066 0.945811 0.0315425 0.552074 0.910581 0.260439 
0.597989 0.968406 0.265549 0.527945 0.864108 0.146702 0.505406 0.925678 0.173761 
0.534647 1.00537 0.0510135 0.522372 0.918602 0.107584 0.473516 1.06067 0.188806 
0.467657 0.9969 0.154679 0.536774 0.990072 0.138899 0.517962 1.04824 0.269179 
0.571306 0.946311 0.192765 0.436195 1.06774 0.0347797 0.539916 1.12663 0.0335714 
0.573008 1.0664 0.0351734 0.503818 1.06728 0.0328708 0.552087 1.10864 0.0954063 
0.522619 1.05128 0.104973 0.543552 1.01018 0.209591 0.502581 1.12686 0.205546 
0.537784 1.23513 0.0890027 0.573523 1.21236 0.0322873 0.562723 1.1782 0.123638 
0.523184 1.09304 0.152474 0.604296 1.08852 0.268672 0.53924 1.23945 0.159042 
0.534022 1.21397 0.238302 0.565526 1.13241 0.18059 0.558392 1.07465 0.214303 
0.553941 1.1389 0.259181 0.639065 1.2082 0.0433955 0.621032 1.21085 0.110714 
0.463933 1.2164 0.100672 0.646043 1.23807 0.22289 0.594919 1.20079 0.186388 
0.757786 1.18786 0.207904 0.679054 0.130704 0.0407686 0.693435 0.119211 0.112564 
0.721562 0.0321994 0.193006 0.681932 0.134448 0.265516 0.698147 0.0937677 0.181158 
0.636798 0.262733 0.0387347 0.694624 0.315758 0.0396724 0.702687 0.225265 0.149209 
0.704096 0.26713 0.267353 0.640367 0.406879 0.174821 0.694771 0.200222 0.267451 
0.678199 0.327796 0.266704 0.662324 0.336986 0.137908 0.680614 0.4595 0.0425344 
0.659113 0.495677 0.0972942 0.652406 0.358299 0.0778655 0.685847 0.467516 0.158466 
0.648733 0.462736 0.216747 0.68079 0.279034 0.104649 0.730818 0.433522 0.199541 
0.690684 0.353962 0.201216 0.611124 0.646199 0.0351644 0.6623 0.526321 0.0349397 
0.635018 0.558561 0.0889756 0.595179 0.600332 0.120123 0.647804 0.608839 0.156537 
0.663667 0.684623 0.262136 0.637759 0.547427 0.269081 0.686708 0.583224 0.207122 
0.616631 0.579318 0.208127 0.672057 0.548256 0.149857 0.677101 0.51708 0.206245 
0.62814 0.716456 0.122611 0.65795 0.656526 0.0910521 0.696822 0.573352 0.0971241 
0.708199 0.628697 0.138101 0.71711 0.648029 0.207024 0.660671 0.824256 0.268702 
0.664697 0.673041 0.159258 0.623838 0.803512 0.116756 0.647053 0.878017 0.0390986 
0.690111 0.76307 0.07975 0.7079 0.704189 0.0844008 0.679949 0.763924 0.149174 
0.636631 0.776912 0.203005 0.696556 0.716434 0.204717 0.61364 0.869923 0.265678 
0.582646 0.873457 0.181816 0.614686 0.970992 0.0372507 0.668626 0.985964 0.0763055 
0.628863 0.869688 0.105963 0.643116 0.92806 0.0890613 0.586911 0.909993 0.126291 
0.609884 0.968693 0.13895 0.63395 0.985718 0.209497 0.675805 0.85077 0.148013 
0.636006 0.923831 0.233821 0.643789 0.867344 0.206517 0.633381 0.918109 0.169151 
0.630521 1.1084 0.0300652 0.642 1.04145 0.040375 0.694548 1.09372 0.0358789 
0.5739 0.958245 0.0912821 0.593741 1.02251 0.0955084 0.667361 1.04343 0.115846 
0.577894 1.03155 0.260377 0.613367 1.02672 0.16172 0.671434 1.03255 0.184322 
0.616595 1.09101 0.0912342 0.621416 1.14441 0.139068 0.696782 1.16664 0.0370849 
0.595837 1.15571 0.0661718 0.582823 1.08003 0.147199 0.623727 1.057 0.217151 
0.741323 1.1332 0.0833299 0.636094 1.13376 0.223749 0.660962 1.09363 0.167479 
0.603804 1.19731 0.263609 0.749099 1.21398 0.033559 0.791899 1.18432 0.101059 
0.689478 1.17041 0.106153 0.672496 1.19946 0.168347 0.677384 1.18861 0.260165 
0.722272 0.0832012 0.0341629 0.754235 0.122052 0.0763636 0.718286 0.048787 0.117088 
0.784031 0.0584765 0.125059 0.723092 0.0423533 0.26252 0.73479 0.105701 0.241849 
0.707746 0.242335 0.0350578 0.750934 0.182082 0.0391989 0.768636 0.266021 0.0304515 
0.737298 0.177461 0.11059 0.72816 0.156812 0.173014 0.755544 0.167458 0.2634 
0.774201 0.23049 0.156192 0.769663 0.24429 0.262195 0.730674 0.210398 0.212498 
0.702991 0.3913 0.0363958 0.764281 0.327709 0.0320116 0.720435 0.333304 0.103083 
0.746608 0.252791 0.093099 0.732281 0.419177 0.0925076 0.764483 0.374296 0.126374 
0.703614 0.387159 0.140757 0.747635 0.320752 0.263464 0.734676 0.282523 0.198642 
0.697047 0.4198 0.260499 0.72652 0.514278 0.0856996 0.752913 0.463731 0.0378094 
0.797384 0.485919 0.0861261 0.754345 0.469516 0.133697 0.789446 0.420175 0.16948 
0.67419 0.494516 0.266635 0.803852 0.511424 0.264174 0.774009 0.402295 0.260577 
0.740163 0.481173 0.247377 0.717894 0.548752 0.263651 0.669119 0.599952 0.0391268 
0.694853 0.665319 0.0315336 0.736513 0.534326 0.174849 0.760965 0.582411 0.121087 
0.678575 0.614249 0.2674 0.752348 0.585459 0.217274 0.743115 0.622849 0.267491 
0.673498 0.724474 0.0330599 0.747625 0.749788 0.111302 0.758669 0.693218 0.0384573 
0.727916 0.755351 0.031209 0.748995 0.65716 0.0969755 0.739824 0.694406 0.261128 
0.687384 0.818148 0.208645 0.726202 0.69355 0.145913 0.750987 0.745696 0.178092 
0.693734 0.745538 0.269539 0.701987 0.934902 0.0399806 0.716826 0.854535 0.0346145 
0.681168 0.82632 0.084666 0.693911 0.889503 0.0957758 0.739236 0.810801 0.159755 
0.73906 0.840044 0.260086 0.734248 0.777812 0.228259 0.681302 0.886621 0.265523 
0.713234 0.878471 0.206439 0.687675 0.951792 0.26891 0.717674 1.02174 0.0398205 
0.725208 1.07013 0.0897189 0.726734 0.954626 0.107468 0.689522 0.949311 0.205711 
0.67202 0.976496 0.138592 0.693862 0.919331 0.150995 0.729852 1.01085 0.155823 
[...]
POINT_DATA 1274
FIELD FieldData 10
VELOCITY 3 1274 double
0.00048416152327 -0.00056596014637 -0.00026196603782 -2.2976039868e-05 -0.0005282961413 -0.00021156495243 0.00024785806461 -0.00056411843956 -5.2913558475e-06 
-3.8378846971e-05 -0.0018061797156 0.0019171609602 0.00023675060771 -0.00079086855574 -0.00018753797468 0.00023234109491 -0.00057839769795 0.00040534585867 
0.00028994214198 -0.00044274220698 0.00055171236148 -0.00023457528813 -0.00078423004679 1.3661749337e-05 0.00040265697591 -0.00093955402933 -0.00022433157637 
0.00036305397221 -0.00050171001841 0.00034085169253 0.0003257891533 -0.00084800387353 -0.0002089185976 0.00026959052277 -0.00077568646501 -5.3605396312e-05 
0.00036854447862 -0.00088371816098 6.336051828e-06 0.00065216607033 -0.0015683729218 0.00088217921167 0.00034215281448 -0.00071562328308 -4.4931210178e-05 
0.00024931102805 -0.0006173720472 -0.00053631700922 0.0003768206131 -0.00091014899197 0.00017307089474 0.00068838425412 -0.0016374644002 3.0177564933e-06 
0.0013725535243 -0.0014808022405 -0.00035247564934 0.00020477839379 -0.00081384641948 -0.00039410799718 0.0005459009092 -0.0013383656284 0.00043659139297 
7.9478023002e-05 -0.00059168653522 -0.00046711183353 6.4413594418e-05 -0.00020966300486 -0.0002300273376 8.8294094586e-05 -0.0002144745784 -0.00052049347735 
0.00072322257098 -0.0017290987393 0.0008064706861 0.0003274988801 -0.00058230261476 0.00038977715554 0.00017604207794 -0.00023494274811 4.0816465394e-05 
0.0007996971122 -0.0020941476805 2.8545327726e-05 0.00079093067324 -0.0015212118502 -0.0014941001359 0.00014708586107 -0.00065905899631 -0.00033790768576 
0.00016167924042 -0.0024172957506 3.4735461623e-05 0.00017992636214 -0.00067335440326 -5.1885023783e-05 0.00033268165331 -0.00075386721699 -0.00031607788541 
0.0010662379948 -0.001733552425 -0.00072359860483 0.0013550459403 -0.0018605218889 0.00060526947455 0.00026680890918 -0.00077924719034 6.4311913649e-05 
0.00091040639193 -0.0015838993499 -0.00029833353601 0.0002517409958 -0.00074011779044 -0.00049812323047 -0.00016534929864 -0.0013520142543 -0.000276811438 
0.00021676230897 -0.00052940301239 1.5162776567e-06 0.00095187313417 -0.0022074336252 -0.0004989489614 0.00011819065043 -0.00082292979406 0.00015825585577 
0.00022530000409 -0.00048982101439 -0.00021473267565 -0.00012891557764 -0.00018042011604 1.3317600014e-05 0.00034408961518 -0.00079813507339 -0.00021685787403 
0.00082749158921 -0.0018442897478 9.836227634e-06 0.00010426776215 -0.00030038229341 -0.00061555778858 0.00021291347619 -0.00054010147506 -0.00045085780976 
-0.0043049866401 0.0034651489956 4.7111032655e-06 2.4136144782e-05 -0.00072723827019 0.00012136487111 0.00067059044952 -0.00077062111294 0.00039792023135 
-0.00026675192737 0.00022565150756 0.00054204179586 0.00014864098395 0.00096165277067 0.00081524912276 0.00033830308256 -0.0010129073115 0.00010140205067 
0.00030707230628 -0.00068756077167 0.0003219327545 0.00022748585798 -0.00038100207183 -0.00023110856121 0.00017129710013 -0.00039743169196 -5.4588380523e-06 
0.00025665068258 -0.00069523402342 0.000594729081 0.00034118247219 -0.00083573891402 0.00032697419179 -0.00039432761051 -0.0010741505837 0.0004759811332 
0.00042162537393 -0.00057063977147 0.000224240695 0.00038041742942 -0.00062889968594 -0.00041624075188 -3.961354869e-05 -0.0014163303562 -2.0824632303e-06 
0.00026543875528 -0.00053994937667 -0.00010328592521 0.00070955030109 -0.0001284334752 -4.903676187e-05 0.00025117585688 -0.00050479789359 0.00033169987268 
0.00014785520056 -0.00037552134407 0.00056513578635 0.00084520391625 -0.00080087910868 0.00053655612979 0.00081984129683 -0.00051900116969 -0.00094861623423 
-0.00023198913667 -0.00086314660097 -2.8622669711e-05 0.00024713088799 -0.00016387617045 -0.00039521135252 8.1097075011e-05 -0.00095761473693 0.00011329311188 
0.00018422466262 -0.0013180117823 -0.00055992228797 -0.0003941258103 -0.00059040605232 -0.00048552429722 0.00031997473899 -0.00099236835364 0.0001651186878 
0.00011118571973 -0.00049960909963 -0.00033172540131 0.00057209887418 -0.0010754563152 -5.467821828e-05 0.00030914978468 -0.00061709555731 2.227681681e-05 
0.00022655044273 -0.00044201834793 8.8994387389e-05 0.00080411276038 -0.00080510947337 -0.00049011298258 0.00041847423503 -0.00091394015424 1.7196588301e-05 
0.00028293483139 -0.00018127979239 0.00012475566245 0.00049132550111 -0.00062313565155 -0.0002174048347 0.00013128840747 -0.0012057539944 -0.00019494122487 
-0.0017067053386 -0.00027083852335 -0.00072528902052 6.9479816162e-05 -0.00086517154681 0.00044752346375 0.00024044753135 -0.0010484605412 -6.6356633639e-06 
0.00058688897659 -0.00084045236989 -0.000181839249 0.00084464733905 -0.00084730000036 -2.0587694826e-05 0.00026198657379 -0.00045901431008 -0.00042122814836 
-0.00015529542537 -0.00078050082088 -0.0019617989877 -0.0018715781077 -0.00069110950577 -2.7630193251e-05 -0.0001991536762 -0.00073522674693 0.00015747221752 
0.00090018227483 -0.00049865976924 -5.6276666176e-05 9.6696364145e-05 -0.0016004061705 4.2275103544e-05 0.00073740575097 -0.00091951831859 -1.5202481579e-05 
0.00076686112808 -0.0014815839163 0.00063061742862 0.0010897797198 -0.0011548680874 0.00090235741331 0.0011038554945 -0.000973223319 0.00021564098136 
-0.00065171226974 -0.0010305053305 0.00032866094621 -0.00060912411674 -0.00090349012259 0.00021895000994 -0.00012561956953 -0.00097126915835 2.0511141769e-06 
0.0022403123933 -0.0038795121107 -0.0015706777209 0.001687862354 -0.0026238257087 -9.213455018e-05 7.7345000019e-05 -0.0020451399105 -0.00036201981366 
0.00018610728216 -0.0010438854071 0.00018695241775 0.00039034076963 -0.00081650531716 -0.00058362957026 0.00037537963416 -0.00064532860552 -0.00030200221424 
0.00011603392757 -0.00063496775842 -3.2544035053e-05 7.1609604147e-05 -0.00041418875423 0.00010394925418 -0.00063795888574 -0.0010461805117 0.00047869163089 
0.0014581853919 -0.001416180544 -7.5429303097e-06 0.00075316533313 -0.0011171439753 0.00030517982675 0.00040290468831 -0.00099782762245 0.00050827376987 
-9.2987810651e-05 -0.00042985336051 -1.0138129917e-05 6.818841736e-05 -0.0016897820224 -7.2774556146e-05 -0.00063223131604 -0.0013547472113 -3.0548400123e-05 
-0.00027791338159 -0.00089396625273 8.0197140385e-05 -0.00032022116441 -0.00078522757443 -4.7352815453e-05 -3.8870471596e-06 -0.0011795115133 0.00019556232021 
-0.00022476429715 -0.00049292691126 -8.7482662068e-05 0.0006947720629 -0.0005281053792 0.00025778122126 0.00098190715749 -0.0012455748621 -0.00086708937865 
0.00095627754301 -0.0014531581238 4.8649883246e-07 0.00057402811197 -0.0019981784791 -0.00017233178954 0.00013395393818 -0.00093087699296 0.00055676271894 
-0.00016655379947 -0.00045915744178 1.1413115428e-05 -0.0001916007724 -0.00085946622341 -2.5073525845e-05 0.00015635354368 -0.00046916135752 0.0004226529423 
-0.0010505419863 -0.0003013734644 1.8715455394e-05 0.00024499938169 -0.00069351470003 -1.9539258293e-05 0.00069361181218 -0.00092552255352 -9.4721659424e-05 
0.00020677825204 -0.00037702582433 -0.00035933469974 0.00023547565838 -0.00069061111492 -0.00016183711316 0.00038655426329 -0.0010310165166 0.00013718450756 
0.001004943732 -0.0013513229851 -0.00042816265538 -1.5602627868e-05 1.8553274442e-05 0.00064807748868 -0.00035468546973 0.00084388130292 -0.00031332049386 
-0.00022411578668 -0.00013963594439 0.00069440528062 0.00064266081615 -0.00080156070976 -0.00026539358952 -8.8211046858e-05 0.00035276564269 0.00078119513298 
0.00015713058449 -9.763883081e-05 0.00027060712869 5.1856011299e-05 -0.00031988280922 0.0010149791705 -0.00015350759042 -0.00082480297519 -7.295556527e-05 
-0.0014211496795 -0.0015780648719 -0.00064288624038 4.7484725948e-05 -0.00024222197252 3.8976523704e-05 0.00070800600769 -0.0012225136264 -0.00021343750464 
-0.00022120483188 0.00026629828041 0.00047535873477 0.00012865951135 -0.00088475294324 0.0008064819462 -0.00028189750394 -0.0003431327197 -0.0015434963705 
0.00038818755722 -0.00097127593436 7.7987419945e-05 -0.00093193633372 -0.00094485277687 0.00014699759362 0.00067031252618 -0.00043677482763 -0.00078751709665 
0.00056610060589 -0.00054196905213 0.00075914340483 0.00068310852443 -0.00098290088266 -0.00050753902952 0.00083006172284 -0.00039762359696 -0.00025206348808 
0.00049989357402 -0.0016454326169 -5.4618344451e-05 -7.0677382302e-05 -0.0010306149316 4.2090833937e-05 -0.00038779928599 -0.00016979325859 8.3959536966e-05 
0.0011976930724 -0.0007211363698 0.0008135452589 0.00032037933898 -0.0012220753697 0.00073876497677 0.00013443500974 -0.00084783884981 3.2695622641e-05 
0.00078246767632 -0.00093710440227 5.0039806828e-05 0.00070491605712 -0.0011038406398 -2.8168628969e-05 0.00023331546888 -0.0012466562128 0.00013975732343 
-0.00090860392258 0.0002636634618 0.00077167561465 0.00041796794598 -0.00020921174578 -0.0001681599082 -0.001243496077 -0.00037598267275 -1.1606630993e-05 
5.5024112247e-05 -0.00021191130751 0.00030324291805 0.00032467039944 -0.00055402477146 9.7648158463e-05 0.00040671680791 -0.00035567753484 -4.3378119083e-05 
-1.4647764916e-05 -0.0002696587784 0.00011991649135 2.873560105e-05 -0.00079413754344 0.00010613413435 0.00022919373498 -0.00073223362551 0.00055022155899 
0.00046123385191 -0.0010889934886 0.00010965360711 -0.00014316610111 0.00076256411316 -0.0051673200044 0.0011424461362 -0.0026901827969 -0.0029973502887 
0.0011759641944 -0.001644814339 3.5340345713e-05 0.0011936109996 -0.0015631550834 2.8448899294e-05 -0.00040504241569 -0.00022715583603 -3.9354685865e-05 
-6.0255930753e-05 -0.00061468762874 -0.00011543298909 0.0016262590638 -0.0023757582629 -0.0028718421763 0.0020274712371 -0.0026341202278 -0.0031187400828 
0.00070550183662 -0.0012409689893 -0.00017402876008 0.00077726085245 -0.0027489374558 -0.0034303278151 0.00048683945688 -0.0008475101329 0.00041639040451 
0.00092077907716 -0.0008571669241 0.00038638032699 0.00057526051486 -0.00073134075811 -0.0012307390835 6.7770398022e-06 -0.001167862735 -0.00013967155967 
-0.001236170916 -0.0020159980122 -0.0010199601131 0.00048622348752 -0.00098332786889 1.0939982952e-05 -0.00055878361289 -0.0011152378561 -4.0825483146e-05 
-7.0291583416e-05 -0.00085887552362 1.2491225905e-05 0.00041927157393 -0.0014248367747 -4.6797084428e-06 0.00031553302704 -0.00037827025096 3.3013584301e-05 
0.00029803327794 -0.00051066682032 -0.00073520958656 -0.00080975193263 -0.0016241542379 -0.0011101433059 2.8783573621e-05 -0.00060347745989 3.5530872704e-05 
0.00011796900259 5.6595575219e-05 0.00011551028667 -0.00057434122819 -0.00068961513206 1.3070995558e-05 0.0005363768797 -0.00034263933932 -0.00089184847992 
-0.00031789465671 -0.00085222401402 -0.00044377698815 0.0005079724171 -0.00067610832599 -2.7778103753e-05 -0.00084715875558 -0.0013452238014 0.00021490625856 
-0.00087055352804 -0.0010638961554 -0.00031589298928 0.000108491289 -0.0016062906457 -8.672075168e-05 -0.0014267459069 -0.0015640507416 -0.00027149726599 
-0.00040894283185 -0.0015234744908 0.00065385962571 -0.00056093475275 -0.00053738830393 -0.00019838133026 0.00090316051056 -0.00041207392266 0.00021603827254 
0.00056840693538 -0.0015260537974 0.00013005132009 -0.049084755345 0.0088177272053 0.057441083364 -0.00066880734388 -0.0013016674957 -1.323113413e-05 
7.6871541321e-05 -0.0033884641276 0.0010316239275 -7.0650412895e-05 0.00012793094371 -0.00037445403215 -0.0002382052312 0.00056156155172 0.00030847426141 
9.0011781093e-05 -0.00010463413515 -0.00031019157768 0.00010454685005 -0.00091803786673 -0.00048605054311 -0.0002284061864 0.00063769139645 0.00039867844697 
0.00078092016852 -0.00040287941477 0.00011781923453 0.00091965579553 -0.00013275873991 2.0155435379e-06 -0.00026013202593 1.6804622352e-05 0.00096402502035 
0.00013105481634 -0.00063457195188 -0.00083363067536 -0.00022117120415 -0.00057252339173 -0.00048650200832 -2.3445368794e-05 -0.00051211120215 -0.00012258729483 
0.0021627112975 0.00083199141611 0.00045928568669 -0.0003509934647 -0.00042533141847 -0.0001018001794 -0.00045846610422 -0.00092781315275 -0.00053859764379 
0.00022998438364 -0.00047160245812 -0.00036217833425 -0.00024479536279 -0.001119218878 -0.00024085125698 0.0005502909529 -0.00081742588056 -0.00039160359426 
0.0010509897613 -0.001108577062 1.6645591354e-05 0.00084030097609 -0.0006432239791 -0.00024782878402 0.00017360099673 -0.00082735587116 -0.00010480526068 
-0.00017017845659 -0.00029696981338 -0.00020320432852 0.00055868752745 -0.00070237980003 0.00021588180712 -0.00093970344476 -0.00083954254042 -3.3142089667e-05 
-0.00019707652584 -0.00070102474362 0.00081463374021 0.0005634445154 -0.00052516426593 -0.00060634283591 0.0002415069695 -0.0015576967789 0.00030799399537 
-0.00023584041405 -0.00069801638875 2.2540801831e-05 0.00050940020281 -0.0011081051119 -9.0268825534e-06 0.00058529883365 -0.0010422687957 9.3884477757e-05 
0.00053886753109 -0.0010446419504 0.00042700815802 0.00073498666035 -0.00074634448858 -9.5230754433e-05 0.0010748927273 -0.001118965166 0.00012650589742 
3.3462162769e-05 -0.0012542631018 -6.2009852563e-06 0.00027306785863 -0.0013332780555 0.00039965059114 0.00040213971609 -0.0013898424955 -0.00043753099051 
2.3909817183e-05 -0.0011643574039 0.00059534729656 -0.00015103677568 -0.00060444110113 -5.4864625387e-05 0.0002693824829 -0.00082733415878 7.0908320442e-05 
0.00039635399881 -0.0008395343619 0.0003965424379 0.00024799967907 -0.00073346091968 0.00056143614264 0.0016274960013 -0.0022602342906 -1.8563680945e-05 
-0.0010239087991 -0.00082962962579 -0.00054553624618 0.00011600911662 -0.0011524855243 0.00044284085639 -0.0001042278655 -0.0016946948976 -0.00034544800254 
0.00015386578281 -0.0017046699473 -0.00021093979414 6.5198543211e-05 -0.00086882769697 0.00023159934193 6.1025890647e-05 -0.00093193499983 -3.555441145e-05 
0.0014624582488 -0.0029050764682 -0.002450016829 0.00052643312979 -0.0012046573238 -3.6260829255e-05 0.00016074386547 -0.00058043573152 0.00022838370678 
0.0021186697229 -0.00083775647962 0.00035057398279 0.00072136638976 -0.0008869286658 -0.001388767916 0.00062520444246 -0.0014698103324 -0.0020036291897 
-0.000271814596 -0.0004645319318 0.00025005772069 0.00069403206114 -0.00044012179436 0.00053058863441 0.0024909854344 -0.0014527296642 0.00012831551827 
-0.00043650071937 -0.00073823220452 -2.4358194741e-05 -0.0016798252532 -0.0035297353206 0.0052369269112 -0.0010178364951 -0.0020579808413 -0.00010048560574 
-0.00013556197287 -0.0006606080382 4.3999999013e-05 -5.2447651541e-05 -0.00089696609952 -0.00019321221661 -8.3270703619e-05 -0.00080031391654 -3.08411134e-05 
0.00084323765075 -0.0013422667531 -0.00047526762543 0.0004252928903 -0.00097458230927 0.00027281055689 0.00027674012504 -0.00055986070609 0.00012354474693 
0.00014601079551 -0.00039444630471 0.00022491179795 0.00059619101175 -0.00065796664652 0.00021063593924 0.00069733212108 -0.00076793910316 0.00014667040839 
0.00015871913231 -0.00082800807508 4.8606481837e-05 0.00032007351272 -0.00059925904953 -0.00032667195588 -0.00067572360733 -0.00075777046051 2.7553506669e-05 
4.1015676036e-05 -0.0012583364503 -0.00098593918404 -0.00047292412178 -0.0015210899926 -0.00045763756973 0.00083386110808 -0.00045048724858 -4.5062906763e-05 
-0.0013647275518 -0.00047855371314 0.00089482055993 -0.0020313185597 8.4115125096e-05 -0.0011520458694 -0.00030558334885 -0.00078510765979 0.00019012896333 
-0.00092659209729 -0.0010495476445 -4.2756555147e-05 -0.00021233800421 -0.0013227748218 8.949208595e-06 -0.0026914866289 -0.0026115515339 -0.00049325466372 
-0.0016395289325 -0.00034215924561 -6.5493051309e-05 -0.00061969753011 -0.00017144751935 0.00014748223964 -0.000899270524 -0.0019936222725 0.0026160777806 
0.00065011213939 0.00052215036766 0.00019920360414 -0.00032441418373 -2.2903747189e-05 8.4700366905e-05 -0.00022342814213 0.00064055096324 0.00067533937235 
-0.00014594037413 -0.00078525765212 0.0010920477036 0.0004193071538 -0.001098169499 3.0580808501e-06 0.00093366136921 0.00026488512879 0.0010544613304 
-0.00040596365548 0.00027768449535 0.0015748624949 0.00032106648166 -0.00023337267054 -0.000467029099 0.0012627021139 -5.0907931155e-05 -0.0013705099856 
-0.00035874633502 0.00043355928414 -0.00014816442946 -0.00034391867662 0.00034337272945 -0.0015025030065 0.00041909751942 -0.00018617512531 -1.306310189e-05 
3.1784148618e-05 -0.00037008542632 -0.00087546993952 -7.2321593557e-05 -0.0012861354261 -0.00049553439445 0.0010662226558 -0.001163275389 0.0002223488918 
-9.5627224557e-05 2.9927229594e-05 -8.8486212377e-06 0.00093998352017 -0.00018960160787 -0.00087269588897 -0.00033028724189 0.00036719286467 0.00042996117218 
0.00093206178435 -0.00086545604887 -0.0004460226093 0.00034689910233 -0.00052513914626 3.4337254264e-05 0.00011843965149 -8.0248542704e-05 0.00086144475269 
-0.0002321610894 0.00039062515859 4.6363577592e-05 0.00022292227375 -0.00041042693983 1.9969648214e-05 0.00022327582316 -0.0012028593775 -0.00016144394785 
-0.00015545877412 0.00031327238532 -1.6264739934e-05 0.00028033948692 -0.00067114470499 0.0010849093729 -0.00079330877833 -0.00011766428531 0.00023669002515 
-0.00029855066881 -0.0015740834567 0.00038148756364 0.00080638769197 -0.0007936681243 0.00061751284059 0.0016976402008 -0.00095536353968 0.0013100618204 
0.00073651335587 -0.00072942571807 -4.6995631041e-05 0.00051795076006 -0.00025448262976 4.0644748717e-05 -0.00046278244393 -0.0015428357273 -0.00018234821861 
0.00065309817648 -0.00041477397096 -0.00062758967534 0.00037349328828 -0.00070589355331 1.1226518591e-05 0.00015146925657 -0.00098310080271 8.4750426312e-05 
-0.00039341991311 -0.00070533164524 -2.1283914478e-05 0.00064710100063 -0.0012206695358 0.000443153324 0.00019039703407 -0.00024890481692 0.00072373788665 
0.00051182419352 -0.00079537846244 -4.8954296443e-06 0.00062175908564 0.00011219330516 -0.0010761654349 0.00063510477775 -0.0013833119671 5.9669219446e-06 
-0.00011947522318 -0.00043482683793 -0.00039953745471 0.00022487702612 -0.0010172476184 0.00061135390691 -0.00030521313176 -0.0010693811768 7.5135021247e-05 
-0.00019061966687 -0.0013033108174 0.00025889068362 4.750098113e-05 -0.00065609012832 0.00025001253241 0.00015840134412 -0.00064019672528 3.794820764e-05 
0.00077606118144 -0.0015345738354 0.00021073156251 0.00034651094265 -0.001213841538 0.0004714611699 0.0011327324092 -0.00077602139821 0.001032888555 
0.00014578186821 -0.00089754773514 1.8702365666e-05 -7.8492761794e-05 -0.0004053131962 0.00010556136738 2.3321063887e-05 -0.0014251095215 -3.5276217691e-05 
-0.00011779485362 -0.0014256262117 -0.00017610665182 0.00013473090967 -0.0016674473591 -0.0007526698721 -0.00038422577059 -0.001257657501 -0.0010937184461 
-0.0014586170432 -0.0019194091646 3.6270227351e-05 -0.00091120798712 -0.0029207275686 0.0014379463518 -1.5186937101e-05 -0.00085673799214 -0.00043747095796 
-0.00070766842435 -0.00058121960201 0.00067637158524 0.00036746068441 -0.00074485913776 -3.7726872798e-05 -1.3335562202e-05 -0.00072630637273 -0.00010093131786 
0.00077292686342 -0.0011593599766 0.00028351159033 -0.0018561341043 -0.008943901785 0.0032764702256 -0.00051883260204 -0.002177630956 -8.9300615651e-05 
-0.00023491784801 -0.0004500426949 0.00012870100384 -0.0010061015418 -0.00067066699106 -0.00067106865629 0.00094665596383 -0.0025808374948 0.00016364024711 
9.1705847619e-05 -0.00073973772772 -3.3145256252e-07 0.00041386399596 -0.0021530791055 0.00023772216093 -0.00024113252453 -0.0020019873641 0.00043171168383 
5.7593178589e-05 -0.0013273740227 0.0043160464443 -0.0011273959367 -0.0027495045683 -9.1054387275e-05 -0.0021318000764 -0.0026750622039 0.0010667486038 
-0.0015227868852 -0.0025090497043 -0.00033026660058 -0.00056160596948 -0.00047707912452 -0.00071023269247 -0.00027227854308 -0.0017923177177 -8.2879949224e-05 
0.0006864880727 -0.0014045623258 4.2487785281e-05 0.000874701888 -0.00088622522783 4.5589343864e-05 0.0017537025931 -0.0014648897351 0.00059968288615 
-0.00013580056402 -0.0013381945767 0.00049162919588 0.000772218878 -0.00099315986265 -3.980554188e-05 -0.0019368082188 -0.0040885058217 9.3659797984e-05 