# vtk DataFile Version 4.1
vtk output
ASCII
DATASET UNSTRUCTURED_GRID
POINTS 1274 float
0.512774 0.554369 0.0379521 0.469452 0.65135 0.105365 0.48771 0.598403 0.268458 
0.494691 0.587704 0.099029 0.423583 0.756171 0.0323154 0.424325 0.768767 0.119468 
0.475446 0.637716 0.212935 0.459473 0.670377 0.268649 0.393792 0.845441 0.0588889 
0.398294 0.813023 0.164628 0.445708 0.699824 0.21505 0.432608 0.7393 0.265757 
0.362748 0.903009 0.0319699 0.343509 0.968797 0.0518742 0.38117 0.878787 0.146413 
0.394704 0.844644 0.231928 0.345191 0.957929 0.260061 0.313784 1.03965 0.0387197 
0.390366 0.914115 0.0866263 0.447574 0.899333 0.110136 0.332079 0.996578 0.129983 
0.408729 0.91542 0.218489 0.310266 1.0381 0.265121 0.351874 0.929818 0.187747 
0.281347 1.10249 0.0483794 0.327905 0.987985 0.200689 0.286451 1.10861 0.260298 
0.257545 1.16295 0.0336643 0.356995 1.11601 0.104297 0.301738 1.06925 0.109412 
0.289753 1.2523 0.0382189 0.302755 1.04565 0.200305 0.283437 1.10081 0.172421 
0.333128 1.25576 0.09263 0.38474 1.15815 0.0375247 0.275464 1.14867 0.110275 
0.421462 1.15018 0.106487 0.260591 1.15078 0.208607 0.339991 1.10729 0.211332 
0.218609 1.25633 0.0332148 0.319814 1.18638 0.0542654 0.319486 1.15705 0.173665 
0.244644 1.19927 0.16457 0.287475 1.18332 0.26484 0.238959 1.2224 0.0937658 
0.371804 1.23203 0.0356631 0.236459 1.23044 0.236451 0.215612 1.25692 0.149738 
0.541183 0.470104 0.0302095 0.611618 0.295449 0.0943293 0.595519 0.35878 0.121488 
0.596845 0.34778 0.197716 0.576067 0.388931 0.266501 0.610116 0.314335 0.261932 
0.540741 0.469906 0.209765 0.508591 0.558126 0.219065 0.603388 0.328912 0.0358989 
0.566618 0.417652 0.159271 0.483832 0.624465 0.0382861 0.60981 0.475702 0.047881 
0.545934 0.475102 0.0985076 0.549519 0.448261 0.268474 0.565145 0.572029 0.262771 
0.527392 0.512519 0.159561 0.550649 0.669011 0.0308602 0.445301 0.711686 0.0786145 
0.517458 0.698051 0.106446 0.471402 0.753841 0.178199 0.551124 0.548249 0.101307 
0.523073 0.65886 0.266702 0.446192 0.697315 0.146043 0.414778 0.777992 0.214404 
0.500976 0.681321 0.170053 0.554379 0.577525 0.168473 0.494073 0.780624 0.0920942 
0.535381 0.760934 0.14633 0.458712 0.815053 0.0363746 0.508347 0.724836 0.0397541 
0.484339 0.818285 0.150728 0.436684 0.836072 0.113025 0.364387 0.894559 0.269731 
0.499254 0.769759 0.260788 0.53859 0.617847 0.219241 0.563255 0.748077 0.220246 
0.467721 0.816057 0.213566 0.506628 0.706393 0.226611 0.459803 0.889752 0.0400517 
0.520347 0.854165 0.0354097 0.535617 0.791491 0.0326233 0.45394 0.876126 0.177687 
0.495124 0.850371 0.0953321 0.464786 0.870519 0.260663 0.43862 0.804181 0.269008 
0.416853 0.952141 0.0373624 0.373489 1.08989 0.0325879 0.465897 1.005 0.0331273 
0.400406 0.997142 0.0949422 0.415542 0.94849 0.150797 0.468188 0.964642 0.0912991 
0.48539 0.941346 0.262338 0.419615 0.972918 0.26148 0.535003 0.983683 0.2689 
0.46003 0.952399 0.20323 0.383667 1.02482 0.0323971 0.365412 1.05502 0.0849374 
0.463464 1.03256 0.0902908 0.36272 1.0634 0.158378 0.395387 1.00503 0.196855 
0.441633 1.05141 0.264238 0.377058 1.02947 0.267487 0.483235 1.00387 0.236318 
0.456878 1.13654 0.038542 0.470489 1.0835 0.123142 0.427275 1.04239 0.138939 
0.360995 1.09073 0.269156 0.526419 1.17887 0.1754 0.489767 1.10268 0.267771 
0.407803 1.08863 0.213292 0.429623 1.13399 0.264219 0.445394 1.12073 0.166844 
0.358924 1.16085 0.260112 0.511062 1.18731 0.0383948 0.498572 1.14718 0.119805 
0.43674 1.20632 0.0341932 0.369675 1.20195 0.101055 0.381154 1.13369 0.166302 
0.338885 1.2372 0.260951 0.453294 1.16796 0.207746 0.40248 1.20685 0.221244 
0.469283 1.19123 0.266121 0.487401 1.25525 0.0362705 0.312516 1.21269 0.137357 
0.460276 1.24937 0.225775 0.300306 1.21318 0.204017 0.474593 1.21232 0.169795 
0.373134 1.22915 0.163506 0.639545 0.231622 0.179438 0.564125 0.412793 0.0315931 
0.660031 0.192947 0.0567025 0.661056 0.287567 0.213187 0.640198 0.241043 0.26351 
0.668925 0.174498 0.20723 0.642649 0.223636 0.115586 0.631521 0.405987 0.0363482 
0.592184 0.422979 0.0894325 0.526984 0.509892 0.265847 0.605587 0.486891 0.262902 
0.617346 0.291194 0.159143 0.639302 0.377451 0.246198 0.613712 0.460257 0.136356 
0.587861 0.546742 0.0375204 0.660523 0.423548 0.10153 0.534172 0.636242 0.131801 
0.604761 0.528711 0.146764 0.575847 0.524496 0.211802 0.592639 0.433462 0.220465 
0.613566 0.623752 0.266298 0.603676 0.718051 0.0390309 0.555299 0.610201 0.0646733 
0.569549 0.733986 0.098768 0.566522 0.697904 0.157762 0.599919 0.710037 0.268228 
0.591658 0.634322 0.174634 0.644347 0.640335 0.211161 0.571956 0.672024 0.224532 
0.597145 0.758573 0.159942 0.587081 0.666352 0.0958986 0.639195 0.787572 0.0390306 
0.561704 0.796622 0.0909177 0.541387 0.814002 0.189922 0.545295 0.831948 0.261832 
0.61622 0.774472 0.265252 0.515544 0.873001 0.210998 0.625439 0.708755 0.20124 
0.600473 0.821111 0.221511 0.584906 0.83737 0.0348865 0.560866 0.860064 0.0929191 
0.565997 0.909223 0.0397006 0.503985 0.943343 0.0315442 0.552109 0.909366 0.260437 
0.5983 0.96697 0.265548 0.528543 0.862678 0.146401 0.505751 0.923198 0.171848 
0.535501 1.00288 0.0511951 0.52278 0.915983 0.105702 0.473296 1.05898 0.189779 
0.468758 0.995464 0.154999 0.537496 0.988478 0.13771 0.518101 1.0465 0.269178 
0.570612 0.944398 0.192197 0.436523 1.06621 0.0347801 0.53869 1.12396 0.0335695 
0.573081 1.06435 0.0351738 0.504124 1.06447 0.0328709 0.552236 1.10753 0.0955503 
0.522971 1.04997 0.104469 0.54276 1.00821 0.209076 0.503092 1.12526 0.204833 
0.53872 1.23373 0.0892758 0.574335 1.21145 0.032288 0.563939 1.1764 0.123037 
0.522906 1.09075 0.152834 0.604905 1.08688 0.268671 0.540276 1.23759 0.159339 
0.53407 1.21116 0.237536 0.566985 1.12959 0.180093 0.556991 1.07275 0.214637 
0.553602 1.13635 0.259468 0.63996 1.20715 0.0428384 0.622139 1.20929 0.110232 
0.464972 1.21448 0.100752 0.647675 1.23553 0.221499 0.595664 1.19824 0.186291 
0.773278 1.16732 0.205871 0.678958 0.130944 0.0402019 0.693135 0.11993 0.113405 
0.721562 0.032201 0.192929 0.682126 0.133984 0.265512 0.697721 0.0948011 0.182122 
0.636821 0.262235 0.0387355 0.695948 0.315451 0.0396675 0.702169 0.225415 0.150509 
0.704465 0.266244 0.267353 0.640176 0.405969 0.173937 0.695345 0.199686 0.267447 
0.678695 0.326968 0.266689 0.663064 0.336149 0.137884 0.679733 0.458044 0.0414623 
0.658513 0.494732 0.0970815 0.651821 0.356234 0.0776356 0.685862 0.466554 0.157975 
0.649905 0.461094 0.216903 0.681919 0.278451 0.104417 0.729219 0.411956 0.197709 
0.690715 0.353767 0.201338 0.61177 0.644395 0.0351631 0.661401 0.524955 0.0349334 
0.635542 0.558092 0.0891105 0.595445 0.599849 0.119949 0.648099 0.60657 0.156696 
0.663927 0.68327 0.262133 0.638539 0.545712 0.269081 0.68724 0.581931 0.207282 
0.617171 0.578173 0.209059 0.67343 0.546415 0.150145 0.678019 0.515733 0.206299 
0.62924 0.714705 0.122643 0.658356 0.653933 0.0920633 0.697415 0.572466 0.0975304 
0.708842 0.626673 0.139726 0.717162 0.646955 0.206612 0.661352 0.822569 0.268701 
0.665488 0.671597 0.159945 0.624262 0.80213 0.116977 0.647829 0.875818 0.0391009 
0.689506 0.760874 0.0794171 0.708296 0.70164 0.0856489 0.68057 0.762487 0.148998 
0.637469 0.774961 0.203121 0.696968 0.715488 0.205024 0.61357 0.867454 0.265677 
0.582733 0.871514 0.182429 0.61498 0.968524 0.0372508 0.668591 0.984123 0.0765152 
0.630741 0.868211 0.106346 0.643988 0.926512 0.0884102 0.587035 0.907289 0.12534 
0.610027 0.966632 0.138929 0.634953 0.983996 0.209854 0.677742 0.848343 0.147891 
0.635582 0.921879 0.233679 0.643507 0.864049 0.207663 0.632641 0.915699 0.169064 
0.630697 1.10732 0.0300643 0.642018 1.03911 0.0396663 0.694462 1.09154 0.0358783 
0.574847 0.956022 0.0906996 0.594618 1.02026 0.0955717 0.667593 1.04191 0.115594 
0.578114 1.03008 0.260404 0.614075 1.02457 0.161829 0.672311 1.03053 0.183948 
0.616474 1.08906 0.0909101 0.622744 1.14272 0.138285 0.696897 1.16445 0.0370849 
0.595372 1.15319 0.0646837 0.582212 1.07682 0.146313 0.624076 1.05546 0.216991 
0.741436 1.13125 0.083498 0.636353 1.13224 0.223623 0.66119 1.09166 0.167669 
0.603607 1.19466 0.26361 0.749338 1.21166 0.033559 0.791361 1.18101 0.101139 
0.689838 1.16896 0.106135 0.673308 1.19791 0.168495 0.677306 1.18671 0.260951 
0.721757 0.082983 0.0341639 0.753637 0.121605 0.0766347 0.717964 0.0495651 0.118821 
0.783925 0.0581449 0.126253 0.723505 0.0413472 0.26252 0.735451 0.105056 0.243139 
0.707642 0.241789 0.0350569 0.750761 0.181495 0.0391981 0.768361 0.265915 0.0304514 
0.736467 0.178524 0.110541 0.727546 0.156502 0.172525 0.75619 0.167057 0.263417 
0.773944 0.229784 0.155084 0.769759 0.242529 0.262596 0.731762 0.209439 0.212751 
0.703276 0.391091 0.0363929 0.765485 0.327705 0.0314114 0.720702 0.333353 0.103399 
0.747468 0.251675 0.0925445 0.733149 0.418225 0.0925617 0.764708 0.373658 0.127433 
0.703781 0.387135 0.140996 0.748116 0.319777 0.263464 0.733914 0.281281 0.197172 
0.697101 0.420365 0.260497 0.726373 0.512801 0.0873498 0.752017 0.463469 0.0378117 
0.796933 0.483863 0.0865137 0.755129 0.46878 0.135491 0.790345 0.41907 0.170645 
0.675364 0.493074 0.266646 0.804207 0.511769 0.264171 0.773312 0.399831 0.260577 
0.74119 0.480782 0.246227 0.718348 0.547882 0.263651 0.66996 0.598394 0.0391235 
0.693911 0.664428 0.0315313 0.737578 0.532462 0.175912 0.761517 0.580571 0.121941 
0.679025 0.613243 0.2674 0.752975 0.585211 0.216481 0.74359 0.621636 0.267491 
0.673493 0.723924 0.0320507 0.747795 0.747745 0.111937 0.758111 0.691411 0.0385008 
0.728012 0.75467 0.0312109 0.748158 0.655135 0.097184 0.740243 0.692668 0.261124 
0.688385 0.815987 0.208835 0.727295 0.69146 0.147027 0.751705 0.744507 0.178758 
0.694372 0.743997 0.269539 0.702119 0.93332 0.0399809 0.717578 0.852377 0.0346098 
0.681652 0.82403 0.084389 0.694243 0.88728 0.0952759 0.739897 0.809332 0.15948 
0.73827 0.837328 0.260085 0.733448 0.77431 0.229826 0.681203 0.885186 0.265523 
0.712547 0.877026 0.207323 0.688106 0.950302 0.268913 0.717734 1.01956 0.0398208 
0.725736 1.06805 0.0895501 0.728172 0.951179 0.107496 0.689482 0.946072 0.205796 
[...]
POINT_DATA 1274
FIELD FieldData 10
VELOCITY 3 1274 double
0.00071247473437 -0.0013356901092 -0.00013844219451 2.1757120542e-05 -0.00072260501611 -0.00060657980802 0.00041487256768 -0.0010121175892 5.427772484e-05 
0.00037753896508 -0.0012113415119 0.00053126206651 0.00022205983072 -0.00071800002248 -0.00016158804462 0.00034240121628 -0.00061341320232 0.00073971084762 
0.00025028951352 -0.00073586504148 0.00020516712633 -0.00037668204839 -0.0012534267472 0.00011136970604 0.00054210508853 -0.0013382561181 -0.00038827096958 
0.00026704578685 -0.0005138582002 0.00049859889679 0.00061994767151 -0.0011709397037 -0.00023623144776 0.00047127635299 -0.001220210612 1.6917008877e-05 
0.0004878688377 -0.0011765830965 4.5675757791e-06 0.00054311457125 -0.0012140699447 0.00018540622498 0.00027060636541 -0.00068768855721 8.5587806227e-06 
0.00040186641602 -0.0008922799434 -0.00011836123718 0.00039153013796 -0.00094320569068 1.1119163244e-05 0.00049592497382 -0.0012291440075 3.0538529782e-05 
0.00060192353036 -0.00095017953646 -8.8729735771e-05 0.00065377085396 -0.00064222494193 -0.00015196261941 0.00044130128065 -0.0010059726554 1.641422242e-05 
0.00011889973668 -0.00092656672061 0.00022079179783 0.00022781706124 -0.00056586207352 -0.00016528161831 0.00025047374162 -0.0006309989416 -0.00012626528355 
0.00051143521766 -0.0012498403997 0.00012347572004 0.00035785280257 -0.00071065554876 0.00016366962376 0.00022876774825 -0.00057976650252 3.4138584827e-05 
0.00052231273516 -0.0012628849829 -2.7651368254e-06 0.00057098347485 -0.0011325236031 -0.00091226736703 0.00031782223094 -0.00071854333417 -0.00060964846144 
4.5670040214e-05 -0.0013887153269 2.7550190177e-05 0.00024456856255 -0.00074403989434 -2.3118425836e-05 0.00034302717715 -0.00079857073785 -0.00018960737961 
0.00042560299909 -0.0011689825276 -0.000305654127 0.00074829159543 -0.0011207162675 0.00013901100759 0.00032479642396 -0.00074085329992 -0.00024518494218 
0.00049123290169 -0.0010705134628 -5.2255855456e-05 0.00036049870675 -0.00078681910791 -0.0002305785886 0.00012443485063 -0.00088776664267 -0.00011691969617 
0.00012828082831 -0.0002908906958 6.3561057453e-06 0.00063911034137 -0.0012075311541 -0.0003509933715 -1.956730625e-05 -0.00085529225165 3.6572848762e-05 
0.00031885232285 -0.00079423766782 -0.00022114456856 -3.8278737664e-05 -0.00057204696559 -1.9993388414e-06 0.0003030688448 -0.0007645576283 -0.00032078637814 
0.0007711840477 -0.0012513490305 -1.7337385232e-05 0.00014752730829 -0.00036457305 -4.3665584318e-05 0.00033241576473 -0.0008031646465 -0.00027462548942 
-0.00013495855838 0.00041850388706 1.6334171621e-05 0.0011470317635 -0.00020153803786 0.00021907635687 -0.00028486587209 -0.00024107849519 0.00015584028979 
0.00037208502153 -0.00047693969615 0.00046206450981 -0.00011926096769 -0.0017336445652 -0.0013175854412 0.00018940003896 -0.00055010605097 0.00039013502356 
1.3997665445e-05 -0.00035290716395 0.00023035046879 0.00029227719162 -0.00055600756987 -0.00013061840937 0.00011576063235 -0.00024132336793 2.2442975604e-06 
0.00036775321462 -0.00041789894255 -3.2448630294e-05 0.00059547857695 -0.0014683582321 -0.001377503447 -0.00035647059822 -0.0010937582359 -0.00062751261202 
-0.00015605079173 -0.00079158911806 0.00038647459743 0.00089734540736 -0.00010309284645 0.00022386714699 -2.9636211547e-05 -0.00066303038585 9.2870551872e-05 
4.0698340364e-05 -0.00035765821167 2.5172743592e-05 0.00016583016166 -0.0014402827937 -0.00023670635387 -2.2077863673e-05 9.6791672864e-05 0.00041360232299 
0.00011062838725 -0.00048352381035 0.00043884607178 0.00047934662905 -0.00084070418195 -8.506187145e-05 0.00051968497452 -0.00040944317058 0.00034909210598 
-0.00049344897446 -0.0010286221809 -0.00010457030112 0.00010736945299 -0.00037360694608 -0.00037910393626 0.00023688754681 -0.00093425699071 0.00013730519956 
1.3628437137e-05 -0.0011111336423 -0.00049429768057 0.00030219733577 -0.00047072236399 -0.00016922970088 0.00012166604045 -0.00096660881779 -1.7775543602e-05 
0.00087163992286 -0.0016361714766 0.00087547432342 0.00084919152447 -0.00100023132 2.0487601209e-05 0.00053496442104 -0.00099364616256 0.00023881230217 
0.0004861210842 -0.00085708780394 0.00028353837665 0.00050637446155 -0.00055547463552 -0.00025919725193 0.00039161845767 -0.0010020996765 2.2535296723e-05 
0.00020364935682 -0.00066034099319 -0.00023658905558 0.00099080785905 -0.00055539487589 -0.00066262704263 0.00064628261166 -0.001386578269 0.00020248237484 
0.00042296721666 -0.0010669072811 0.00028384669833 0.00051410291716 -0.0010002512037 -8.7193748747e-05 0.00028111208758 -0.0009642614087 -2.5824939739e-05 
0.00020923599812 -0.00096070094682 -0.00040812656743 0.00012258369422 -0.0010375739851 8.1166536494e-05 -3.2252594964e-05 -0.00085744626366 -0.00013821510296 
0.00059658855742 -0.0011331510093 -0.00036923873481 -0.00071151684816 -0.000774284926 -5.282901871e-05 0.00012413265643 -0.0011658947142 7.73606467e-05 
0.0005453282279 -0.0008198730089 -6.1023041699e-05 0.00027209054773 -0.0010143193887 5.8991579547e-05 4.8120333188e-05 -0.001002992298 4.7255686284e-05 
0.00025492097062 -0.0011983176206 0.00033754957847 0.00072541419255 -0.0008122041242 0.00031088493485 0.00071843886438 -0.0005212178634 0.00033594406755 
5.0046600725e-05 -0.0010270698281 0.00082943005454 0.00027183567608 -0.00074684146681 -0.00015202687072 0.00029216510059 -0.0012653590772 -5.7311182983e-06 
0.0011027916163 -0.0018848766573 0.00010800002252 -2.2202661193e-05 -0.00091291544905 7.5173442196e-05 0.00018934145823 -0.001364466042 -0.00025585331147 
-8.7996848842e-05 -0.00064181967823 -9.9028846242e-05 0.00012123190328 -0.00088933352747 3.730901849e-05 0.00027399179758 -0.00074499220096 1.7854497534e-05 
0.00028395381018 -0.00073994487849 -1.9521971553e-05 0.00010440567244 -0.0008801386291 0.00027863512816 0.00010278539092 -0.0011904778273 0.00039362575372 
0.00076361750955 -0.0012852487136 0.00010050821068 -0.00026106297206 -0.00061739486205 -0.00017315912077 0.00018278079743 -0.0007972791042 0.00019972314404 
-6.5412241933e-05 -0.000849299173 -1.0503018371e-05 0.00090003881567 -0.0012380178784 0.00069733130897 0.00015946306782 -0.0012489450022 1.5644668631e-05 
-7.4079330423e-05 -0.00092367412971 0.00010939216925 0.00032872985276 -0.00093882834269 -1.793342171e-05 -3.7571718358e-05 -0.00087112831848 0.00010371291946 
-0.00019324209903 -0.00085872709795 -3.6188413633e-05 9.5267134791e-05 -0.00054362500259 -0.00022123583906 0.0003848236243 -0.00077095959262 0.00055178367889 
0.00079692432524 -0.0011864123176 1.5119814654e-05 0.00047708609867 -0.0011291004161 -0.00022455519256 -3.6625862754e-05 -0.00075866055161 -0.00033115886787 
-8.7068634874e-05 -0.00083461723161 -4.6926156581e-06 -0.00017934559784 -0.00092624366416 0.00015641241041 0.00017696019115 -0.00068778487037 0.0005217439402 
-6.6316226096e-05 -0.0006079910913 -6.0911476561e-06 0.00016432005429 -0.00053620589214 1.3058809515e-05 0.00029482388024 -0.00082515173213 -5.1666258201e-05 
0.0002842378779 -0.00081438297185 -0.00043848650387 -2.8308119352e-05 -0.00080067371477 -0.00011546692151 0.00085490919689 -0.0013712392121 9.0263360056e-05 
0.00044004533475 -0.0016113454458 8.9388167776e-06 -9.7377213795e-05 6.9675069501e-05 1.5506436287e-05 -2.5531180472e-06 0.00046995264511 -0.00019652136692 
-0.00017346743915 -5.7376070413e-05 0.00035058213317 -0.00069222707119 0.00012530692356 0.00011294555243 -0.00018973558927 0.00043771628425 0.00072952677771 
-3.2212747527e-05 0.00029669595083 0.0004736967463 9.4340785943e-05 -0.0003281617358 0.00079223279983 -0.0017505263625 -0.0015075804779 0.00019822359466 
0.00069978132106 -0.00023388608231 4.5302711096e-05 -0.00032659434409 -0.00048800405543 -2.5964871906e-05 0.00051073878302 -0.00076921872424 0.00022794450506 
-0.00034568855653 0.00051559076122 0.00024348853962 0.00043293901014 -0.00061845008131 0.00090008068159 -0.00013157961137 -0.00036777310942 -0.0006027708284 
0.00072492996211 -0.00063429402731 3.4955076331e-05 0.00071946028235 -5.5774901435e-05 -0.00053134702252 0.00088169806669 -0.00075137238748 -0.00096628387839 
0.00042814668952 -0.00083935541123 0.0011104916753 0.00037995195481 -0.00070606769902 4.3531703873e-05 0.00028882816751 -0.00043679335689 3.1607686602e-05 
4.7957700328e-05 -0.0010254568132 -4.8551034473e-05 -0.00036005369783 -0.0012262020408 -0.00015560958216 -0.00013979121412 -0.00077654223994 0.00021467636273 
0.00071771872462 -0.0005109932431 6.8632324053e-05 0.00025026207306 -0.00098916829171 0.00055792800236 0.00015249032693 -0.00086875182987 0.00013634713699 
0.000860323836 -0.00083324920994 0.00026455891269 0.00066070519194 -0.00091408436266 0.00023099741161 -0.00040691158434 -0.00038581974974 -0.00019453266268 
-0.0013969222882 0.00028316196026 -0.00033322968279 0.00028387340925 -0.00033678530278 -4.8020245691e-05 4.5820510429e-06 -0.001115323487 2.1105555795e-05 
0.00046467323707 -0.0015644336813 -5.8294377652e-05 -0.00082793858259 -0.00059213535401 -0.00011122396156 0.00013207550076 -0.0009034087888 -4.4987907104e-05 
2.0954004075e-05 -0.00044496349408 3.9610117328e-05 -0.00016518680657 -0.00079391198184 0.00039723660367 0.00028151720091 -0.00085219607696 0.00044052322498 
0.00015611833027 -0.0011759500846 -7.5939256262e-05 0.00041126002768 -0.00079593782332 -0.00061393164334 0.00031190850325 -0.0016048279149 -0.00011402323779 
-0.00021670542574 -0.00093854186048 4.3501846125e-05 5.7541185202e-05 -0.00082021183069 6.1777368752e-06 0.00018424751447 -0.00082935288731 -3.6551840456e-05 
0.00035978174905 -0.00093856558963 0.000158380029 0.00029424643448 -0.00086146197552 -0.00028606120204 0.000584974561 -0.001546442428 -0.00088236119543 
0.00063972330888 -0.0011750339818 0.0001010147327 0.00036992078508 -0.0013049042256 -0.0010065201398 -0.00017932991204 -0.0010503711132 0.00080913704445 
0.00046963562766 -0.00075549091626 -5.8027719399e-05 0.0004374788728 -0.00066633906202 -5.2154996144e-05 0.00042303005544 -0.0011219203379 1.1229689929e-05 
6.785651258e-05 -0.00062058525361 6.9999060203e-05 0.00014817833251 -0.0010182189692 -0.00015358628485 1.8743867831e-05 -0.00063446926427 4.9530532905e-06 
0.00034603318629 -0.0010334836369 2.517714061e-05 6.6810327833e-05 -0.0014835010388 2.964818045e-05 -2.8829273105e-05 -0.00080950750622 -3.3442112434e-05 
-0.00018528783459 -0.00074387822806 -4.8267868101e-05 -0.00018053214198 -0.00087432894253 -0.00015178265188 -0.00020847807813 -0.00089194259675 0.0002397571905 
0.00033890768317 -0.00075516166916 -0.00010513091192 0.00031113291915 -0.0010409262261 -8.3806723275e-06 0.00036783507752 -0.00084963284584 -0.0002110804673 
-0.00011956986786 -0.0018947527099 0.000255359645 0.00044546301476 -0.00090687004949 6.8786620323e-05 0.000193307857 -0.0011871230611 -7.6789293699e-05 
-4.2687413262e-05 -0.00044391212656 0.0003979576255 0.00082543378781 -0.0013619661691 -0.00055480194409 0.00024891507391 -0.00095243531062 2.9368752457e-05 
0.00015649516887 -0.0012048257387 -1.8310777567e-05 0.00033848628077 -0.0011031697839 -0.00012316809527 0.00056452265453 -0.0010389864449 -0.00010415849558 
0.00040944841466 -0.00098878416643 0.00013903428461 0.00017769996772 -0.0010961193769 -0.00010096837869 0.00020039344491 -0.001144002635 -3.0699268866e-05 
-0.00012475329803 -0.0015940696491 -0.00011587623282 -3.6414932493e-05 9.5846394833e-05 -0.00046052704795 2.5528371346e-05 -2.7272480135e-06 0.00037515399735 
-0.00010963537472 0.00010144206894 0.00096355661568 9.8077926546e-05 -0.000827260983 -0.000314993969 -2.7215935612e-05 0.00013847353827 0.00074031594679 
-0.0004614217711 -0.00046235868791 -6.4082041259e-05 -3.029978968e-05 -0.00034403088312 -0.00047477447466 -0.00025545963935 0.00081142645194 0.00049128333438 
0.00026806751974 -0.00043486846519 -0.00059258091664 -0.00029179063163 -0.00049190915209 -0.00065730882021 -9.8484452806e-05 -0.00047884591731 -0.00010689168353 
0.00092231012652 -0.00020616894294 0.00011726918056 -0.00029904119683 -0.00078608945198 0.00041724335179 -0.00083525703822 -0.00044569454107 -0.00048003344118 
-0.0010840581953 -0.00064195331645 -2.4857981192e-05 0.00045866401282 -0.0011222572983 1.4484594353e-05 -0.00023917472861 -0.00088276521492 -0.00030040090263 
0.00054781042787 -0.0007112684506 9.5032671591e-05 0.00082789421469 -9.3679612369e-05 -2.2314609509e-05 0.00019562237361 0.00019103857695 9.3687082267e-05 
0.00018447973701 0.0018647546869 0.00083768361379 0.00055923438454 -0.0009286024992 0.00026094866766 -0.0017850743421 -0.00070415264623 -0.00015372195486 
0.00036534200597 -6.8727485799e-05 0.00021458544971 0.00031258134584 -8.656976866e-05 1.8989758836e-05 0.00047375988739 -0.001305940665 0.00022590699243 
0.00047265473144 -0.00072616793279 8.7828884726e-05 0.00078563739155 -0.0009737996869 -4.9370898558e-06 0.00055573352814 -0.0008332267768 4.9988834962e-05 
0.00057459013736 -0.00079649019219 0.00053456312831 0.00057672028935 -0.00030094635324 -3.9601796252e-05 0.0014769950101 -0.00051831750766 9.1062753772e-05 
0.00099251885526 -0.00097956603472 -4.6699321229e-05 0.00042943124467 -0.0013952082894 0.00084219580382 0.00045451474879 -0.0016351709804 -0.00043555668352 
0.0003397543186 -0.00097003735099 0.0011134301843 -0.00022817084552 -0.00046309970395 -7.3711849779e-05 0.00094860277069 -0.0015717508346 -0.00052131550603 
0.00056731245472 -0.00049243818379 0.00072420965822 0.00066149683806 -0.0011412955656 0.00037796982168 0.00045054429574 -0.0011741789988 6.4082374334e-07 
9.6117279237e-05 -0.0015824779954 -2.7778999447e-05 0.00012122287446 -0.0011132538267 0.00076869637595 0.00018628706667 -0.00011387699987 -0.00011383625501 
0.00065018360017 -0.0018171322099 0.00020424101267 0.00022918307118 -0.00043604199577 0.00011503838541 0.00075463087763 -0.0015101829469 1.6813087861e-05 
-0.0002790196503 -0.0010551509204 0.00078505315399 7.4494046333e-05 -0.0010044567312 6.7456247006e-05 -2.9708847226e-05 -0.0008854969009 -0.00014152290964 
0.00044202793181 -0.00097520431592 1.463643647e-05 0.00050018427967 -0.00094996685284 -0.00025361266741 0.00028215063241 -0.0010729238103 -0.00049711049298 
0.00036053342448 -0.0013905526445 6.9856150889e-05 0.00062414903872 -0.001121377119 4.7341146337e-05 0.0009098002261 -0.0012771691025 -0.00016897670418 
1.9061430486e-05 -0.0010812240515 -0.00022524135419 -3.9866178751e-05 -0.0019701527428 -0.00038750931344 -0.00021535998784 -0.0017490933828 -0.00018639907731 
0.00068343050982 -0.00024030909833 -1.0093660003e-05 0.00034681214906 -0.0011000871501 -0.00045241157051 0.00030500100762 -0.0010240047696 -5.8847984977e-05 
0.00021683975518 -0.00076344716314 -0.0001501860282 0.00076166519213 -0.0010609450434 -7.8920935334e-05 0.00012911197348 -0.00071307657113 -0.00013472898568 
0.0004436276497 -0.00092003627844 -0.00014557319069 3.174617111e-05 -0.0012075692187 0.00011986771439 -9.4672765725e-06 -0.0012305890341 -0.00035557856174 
9.8021419241e-06 -0.000845531095 -0.00034302414179 0.00032237651756 -0.00098168380668 -0.00021075240859 0.00034188944695 -0.0010375596452 -2.953447611e-05 
-5.1424134928e-05 -0.00063787398142 0.00015564181202 -0.00019432158445 -0.0016111528946 -0.00059855655162 0.00019655673815 -0.0010331665726 9.4765197744e-08 
0.00050085895724 -0.0011794574425 -0.00017092178301 0.00031730316415 -0.00087327141271 -6.3296530974e-05 -0.00010780884075 -0.0012043152143 -8.9602026104e-05 
-5.4253700728e-05 -0.0010529208955 6.2581226443e-06 0.00061385240675 -0.0013104454751 -3.3772424762e-06 0.00056767660854 -0.0015501861966 0.00059837007731 
0.00077726599016 -0.00080165398961 -2.5441381826e-06 0.00025006073488 -0.0013789150832 0.00012239814908 1.6142918007e-05 -0.00084044103073 0.00031199066564 
0.00035404220293 0.00041831429085 -1.5969625418e-05 0.00024814324288 -0.00070323558539 0.00058297815551 -4.6203550596e-05 -0.00024147015497 0.00074951922795 
-0.00030174365377 -0.0011334563001 0.00072915483691 0.00019691279378 -0.00047407551087 -5.4385879371e-05 0.00075767491046 0.00036310362152 0.0007926292941 
0.00054952730881 -0.00011378687642 0.0017686517983 -0.00063420279411 -0.00076632458426 -0.00062588255693 0.00033088722306 0.0014444474295 -0.0010589544079 
-3.1673620979e-05 -0.00015963740786 0.0011101898862 -0.00076127152864 0.0001919907502 -0.00075441310285 0.00023237759322 -0.00022333342703 -4.7530263919e-07 
-0.00034619751408 -0.00091307486129 -0.00060739283647 -2.5840189709e-05 -0.0013519317946 0.0010905413858 0.00012083432986 -0.00029566868114 5.0180910106e-06 
0.00073862658473 -0.00014059619512 0.00012746711805 0.0010186587007 8.8378948582e-05 0.00054261968477 0.00074158205064 -0.00014674740275 6.322495111e-05 
0.00038105567127 -0.00042318026323 -0.00028917031137 0.0010195159986 -0.00091210626516 -0.00012477686206 8.5970568097e-05 -0.0004858401351 0.00062168086681 
9.8237235832e-05 -0.00045371023721 -0.00014908272455 0.00026154993119 -0.00059370956694 3.7498632294e-05 -0.00070529003785 -0.00032048963412 0.00066429257684 
-8.2499665932e-05 0.00037070063741 0.00032632375476 -0.00055800774142 -0.00092677274128 0.0011158114797 -0.00092567174165 -0.0001682838341 4.6023823771e-05 
-0.0012799643687 -0.00013352246254 -0.00046119703596 0.00046622117719 -0.00032503647421 0.0012121150196 0.00039956564626 -0.00052931879656 0.00054556581248 
0.00034351830325 -0.0021385321122 3.1160019026e-05 0.00017480923031 -0.00065884027639 0.00035392458783 -0.00031336393408 -0.0013856665932 -6.3557578331e-05 
0.00034180456434 -4.6461013529e-05 -0.0006891416954 3.4507602221e-05 -0.00072655276288 2.3727041968e-06 0.00043948523758 -0.00065248209317 6.8897096565e-05 
-0.00032792072397 -0.00028417544988 0.00029037498398 0.00059633412837 -0.00087107917085 0.0007447327891 0.00018372228731 -0.00039986426039 0.00096259273446 
-2.302254567e-05 -0.0009403115266 2.5372437678e-05 0.0004806397178 -0.00018674391908 -0.00011706849686 -0.00012527357096 -0.00082773318719 7.2281342799e-05 
-0.00012937173994 7.3752182234e-05 -0.00076558779528 0.0001550328879 -0.00094220879647 0.00019234296773 -0.00053280868271 -0.00081595492732 5.9570880863e-05 
0.0003672903841 0.00033247154379 7.5288695042e-06 -0.00066763277287 -0.00092694379509 0.00019763407881 0.00025676477759 -0.00059902090148 6.5641141188e-05 
0.00079225962733 -0.00094908602824 -8.4619578664e-05 0.00046070109401 -0.00087701848972 0.00065174329584 -0.00019577671312 -0.0008000268352 -0.00054583614271 
0.0003255041907 -0.00070866661703 -5.0452356785e-06 0.0001629695225 -0.00091545299566 3.8011034004e-05 0.00042468455451 -0.00098198283688 -0.00014542570771 
0.00028153566992 -0.0010644974703 -0.00012645042863 -5.892981913e-05 -0.0011133515381 -0.00018384783187 0.00062801272806 -0.00073489742435 -4.154028077e-05 
0.00079655819868 -0.0016323580497 5.5818232368e-07 0.00011786217906 -0.0016953604172 0.00032584416967 -0.00011569150552 -0.0010070725545 0.0004076797822 
9.9441582837e-05 -0.0010021497164 0.00080871757212 0.00010238160613 -0.0010611452656 3.1116583245e-05 0.00021438267929 -0.0014331872387 4.1632495514e-05 
0.00036861911078 -0.0010721158637 -0.00036430045753 0.0010092719505 -0.0017542261032 -5.4681472911e-05 3.1554240615e-05 -0.001835636387 9.8913134978e-05 
-0.00014636549679 -0.00072451626301 -0.0001219280241 0.00020342711207 -6.6646044314e-05 -0.00054876966282 0.00050435018272 -0.00098928016397 -0.00047510229633 
0.000410413036 -0.00091711690564 -2.3672431599e-05 0.00019218126739 -0.00154058839 -7.8331290039e-06 -4.5100928268e-06 -0.0016541253077 -2.3381222368e-05 
0.00033271598542 -0.0009830086618 0.00031159385773 0.00064417377935 -0.0012618384814 3.7958103501e-06 0.00021011354331 -0.001578400372 4.2119931567e-05 
0.00041771185893 -0.0014690732095 -8.2853581226e-05 0.0006953566452 -0.00080731438769 -4.0574037856e-05 -2.5064455652e-05 -0.0014016958552 -0.00041219504571 
-0.00016675783154 -0.0019606806753 3.6946218847e-08 0.00023272437019 -0.0014382762489 -5.8277553252e-05 0.00019930493465 -0.0012989369187 0.00017968585075 
6.8541738173e-06 -0.0014376374764 5.8822823338e-05 0.00020634195174 -0.00084593185081 -0.00011640678235 -0.00014202437671 -0.0011734317561 -2.6676734858e-05 