# vtk DataFile Version 4.1
vtk output
ASCII
DATASET UNSTRUCTURED_GRID
POINTS 1274 float
0.512653 0.554658 0.0379515 0.4694 0.651477 0.105403 0.487601 0.598669 0.268458 
0.49464 0.587825 0.0991385 0.423525 0.756312 0.0323152 0.424283 0.768868 0.119393 
0.475385 0.637864 0.212956 0.459508 0.670607 0.268649 0.393678 0.845716 0.0589661 
0.398245 0.813143 0.164531 0.445621 0.700034 0.215071 0.432512 0.739534 0.265758 
0.362647 0.903255 0.03197 0.343409 0.969041 0.0518082 0.381111 0.878931 0.146411 
0.394629 0.844828 0.231926 0.345117 0.95811 0.260054 0.313679 1.0399 0.0387192 
0.390242 0.914315 0.0866479 0.447447 0.899458 0.110135 0.331993 0.996787 0.129956 
0.408703 0.915592 0.218477 0.310217 1.03822 0.265122 0.351821 0.929948 0.187765 
0.281241 1.10275 0.0483482 0.327847 0.988126 0.200656 0.286402 1.10873 0.260298 
0.257435 1.16321 0.0336643 0.356883 1.11624 0.104493 0.301675 1.06941 0.109459 
0.289736 1.25259 0.0382188 0.302697 1.04579 0.200308 0.283372 1.10097 0.172465 
0.333047 1.25599 0.0926853 0.384571 1.15839 0.0374704 0.275401 1.14883 0.110325 
0.421362 1.15039 0.106527 0.260525 1.15094 0.208649 0.339962 1.10746 0.211352 
0.218581 1.25639 0.0332148 0.319683 1.18664 0.0543341 0.319495 1.15722 0.173661 
0.244577 1.19943 0.164612 0.287489 1.18344 0.26484 0.238894 1.22256 0.0938269 
0.37165 1.23229 0.0356631 0.236429 1.23052 0.236454 0.215544 1.25709 0.149794 
0.541291 0.470068 0.0302094 0.611608 0.295472 0.0943526 0.595486 0.358859 0.121368 
0.59682 0.347837 0.197594 0.576042 0.389 0.2665 0.610059 0.314468 0.261855 
0.54069 0.470031 0.209787 0.508526 0.558288 0.219168 0.603365 0.328968 0.0358989 
0.566621 0.417645 0.159312 0.483714 0.624753 0.0385095 0.60987 0.475921 0.0479864 
0.545903 0.475177 0.0985087 0.54949 0.448332 0.268473 0.565121 0.572191 0.262771 
0.527355 0.512609 0.15955 0.550579 0.669168 0.0308596 0.445264 0.711777 0.0785563 
0.517437 0.698146 0.106402 0.471322 0.754015 0.178172 0.551056 0.548332 0.101157 
0.523104 0.659074 0.266702 0.446151 0.697417 0.146112 0.414699 0.778183 0.214368 
0.500954 0.681515 0.170141 0.554286 0.57763 0.168528 0.494014 0.780859 0.0920391 
0.53529 0.761157 0.146295 0.45854 0.815261 0.0363747 0.508326 0.72503 0.0397539 
0.484301 0.818457 0.150716 0.436567 0.836199 0.113079 0.364312 0.894741 0.269731 
0.499187 0.769931 0.260788 0.538533 0.618008 0.21926 0.563186 0.748254 0.22024 
0.467657 0.816227 0.213546 0.506527 0.706626 0.22669 0.459759 0.889956 0.040084 
0.520316 0.854396 0.0354163 0.535537 0.791709 0.0326234 0.453947 0.876315 0.177694 
0.494992 0.8506 0.0954212 0.464893 0.870678 0.260663 0.438585 0.804409 0.269008 
0.416747 0.9523 0.0373623 0.373468 1.0901 0.0325883 0.465833 1.0052 0.0331274 
0.400305 0.997371 0.0948889 0.415408 0.948675 0.150716 0.468035 0.964761 0.0912496 
0.485374 0.941542 0.262201 0.419582 0.973083 0.26148 0.534942 0.983908 0.2689 
0.459816 0.952744 0.203206 0.383654 1.02502 0.0323971 0.365377 1.05531 0.0849824 
0.46351 1.03269 0.0903254 0.362679 1.06357 0.158399 0.395329 1.00518 0.196855 
0.44159 1.05157 0.264238 0.377013 1.02963 0.267479 0.48322 1.00409 0.236243 
0.456713 1.1368 0.0385414 0.470527 1.08363 0.123176 0.427222 1.04259 0.138887 
0.361019 1.09091 0.269156 0.526255 1.17907 0.175315 0.489757 1.10292 0.267775 
0.407825 1.08879 0.21326 0.429575 1.13415 0.264219 0.445412 1.12092 0.166823 
0.358955 1.16103 0.260112 0.511026 1.18743 0.0384122 0.498497 1.14736 0.119692 
0.436579 1.20656 0.0341929 0.369586 1.20217 0.10109 0.381164 1.13384 0.166371 
0.338898 1.23737 0.260951 0.4533 1.16815 0.207724 0.402426 1.207 0.221116 
0.469283 1.19136 0.266122 0.48736 1.25537 0.0362705 0.31246 1.21286 0.137362 
0.460195 1.24953 0.225836 0.300304 1.21334 0.204032 0.474456 1.21258 0.169777 
0.373038 1.22951 0.163483 0.639561 0.231583 0.179397 0.564153 0.412725 0.031573 
0.660018 0.192978 0.0565815 0.6612 0.28747 0.213091 0.640167 0.241121 0.263509 
0.668944 0.17445 0.207158 0.642697 0.223527 0.115556 0.631577 0.406223 0.0363497 
0.592254 0.423139 0.0894678 0.526954 0.509964 0.265846 0.605468 0.487088 0.262859 
0.617355 0.291169 0.159161 0.639247 0.377516 0.246096 0.61368 0.460343 0.136496 
0.587723 0.546883 0.0375194 0.66047 0.423656 0.101618 0.534097 0.636383 0.131905 
0.604615 0.52881 0.146711 0.57571 0.524679 0.211759 0.592583 0.433581 0.220499 
0.613502 0.623951 0.266299 0.603668 0.718281 0.039031 0.5553 0.610381 0.0646984 
0.569421 0.734229 0.0986962 0.566465 0.698112 0.157674 0.599875 0.710245 0.268228 
0.591508 0.634485 0.174521 0.64414 0.640624 0.211108 0.572025 0.672107 0.224567 
0.597049 0.758799 0.159929 0.586973 0.666453 0.0959175 0.639199 0.787796 0.0390307 
0.561624 0.796947 0.0909084 0.541501 0.814184 0.189908 0.545252 0.832102 0.261832 
0.616123 0.774693 0.265252 0.515588 0.873169 0.210935 0.625371 0.708968 0.201165 
0.600469 0.821403 0.221528 0.58486 0.837549 0.0349918 0.560804 0.860388 0.0929612 
0.566004 0.909424 0.0397007 0.503974 0.943514 0.0315441 0.552076 0.90952 0.260437 
0.598229 0.967155 0.265548 0.528492 0.862868 0.146446 0.505655 0.923519 0.17202 
0.535367 1.00312 0.0511843 0.522721 0.916278 0.105886 0.473343 1.05916 0.189643 
0.468659 0.99561 0.154942 0.537418 0.988611 0.137746 0.51803 1.04671 0.269179 
0.570615 0.944564 0.192213 0.436501 1.06642 0.0347801 0.538675 1.12409 0.0335696 
0.573016 1.06455 0.0351737 0.504105 1.06477 0.0328709 0.552222 1.10772 0.0955639 
0.523013 1.05012 0.104495 0.54279 1.00839 0.209094 0.503102 1.12543 0.20482 
0.538653 1.23388 0.0892795 0.574276 1.21162 0.032288 0.563854 1.17657 0.123098 
0.522942 1.09109 0.15282 0.604817 1.08708 0.268671 0.540217 1.23779 0.15934 
0.53405 1.21127 0.23748 0.566886 1.12987 0.180236 0.556943 1.07294 0.214652 
0.553579 1.13661 0.259467 0.639899 1.20738 0.0428705 0.622031 1.20949 0.110252 
0.464889 1.21468 0.100724 0.647662 1.23576 0.221527 0.595645 1.1985 0.186292 
0.773268 1.16767 0.205897 0.678965 0.130926 0.0402894 0.693125 0.119955 0.113255 
0.721562 0.0322012 0.192853 0.682104 0.134036 0.265514 0.697737 0.0947624 0.181947 
0.636812 0.262299 0.0387356 0.695784 0.315501 0.0396679 0.702245 0.225437 0.150428 
0.70442 0.266356 0.267353 0.640208 0.406081 0.174066 0.695299 0.199743 0.267446 
0.678635 0.327072 0.266693 0.662992 0.336188 0.137871 0.679906 0.458157 0.0416254 
0.658692 0.49484 0.0970842 0.651918 0.356521 0.0776752 0.685878 0.466656 0.158042 
0.6498 0.461316 0.216909 0.681802 0.278469 0.104413 0.729167 0.411969 0.197673 
0.6907 0.353756 0.201313 0.611729 0.644622 0.0351632 0.661553 0.525048 0.0349322 
0.635484 0.558105 0.0890607 0.595389 0.59981 0.119969 0.648029 0.606825 0.156678 
0.663863 0.683426 0.262134 0.638367 0.545932 0.269081 0.687157 0.582092 0.207277 
0.617087 0.578312 0.208971 0.673254 0.546625 0.15013 0.677846 0.515907 0.206264 
0.62907 0.714881 0.122624 0.658271 0.654226 0.0918939 0.697337 0.572551 0.0974951 
0.708714 0.626873 0.139439 0.717182 0.647069 0.206665 0.661175 0.822866 0.268702 
0.665357 0.67172 0.159824 0.624207 0.802308 0.11694 0.647744 0.876072 0.0391008 
0.689483 0.761078 0.0794359 0.708264 0.701881 0.0854956 0.680445 0.762601 0.149005 
0.637364 0.775179 0.203119 0.69691 0.715577 0.20499 0.61344 0.867798 0.265677 
0.582802 0.871712 0.182292 0.615003 0.968711 0.0372509 0.668607 0.984328 0.076518 
0.630577 0.868401 0.106319 0.643893 0.926711 0.0884656 0.586986 0.907531 0.125468 
0.609994 0.96686 0.138943 0.634855 0.984219 0.209849 0.677569 0.848602 0.147908 
0.635596 0.922115 0.233704 0.643517 0.864466 0.207731 0.632691 0.915965 0.169084 
0.630572 1.10735 0.0300643 0.641954 1.03933 0.0397611 0.694386 1.09176 0.0358785 
0.574803 0.956197 0.0907333 0.594469 1.02047 0.0955913 0.66755 1.04206 0.115679 
0.578039 1.03027 0.260421 0.61407 1.02481 0.161804 0.672257 1.03078 0.184051 
0.616462 1.08924 0.0909803 0.622685 1.14293 0.138319 0.696828 1.16468 0.0370848 
0.595367 1.15333 0.0646583 0.582262 1.07714 0.146454 0.624018 1.05566 0.216997 
0.741313 1.13148 0.083557 0.636259 1.13244 0.223623 0.661173 1.09189 0.167679 
0.603598 1.19491 0.263609 0.749234 1.21192 0.033559 0.791189 1.18136 0.101011 
0.689651 1.16911 0.106127 0.67328 1.19823 0.168454 0.677288 1.18689 0.260921 
0.721812 0.0830184 0.0341635 0.753673 0.121729 0.076567 0.717955 0.0495834 0.118595 
0.783905 0.0581599 0.126104 0.723473 0.0414249 0.26252 0.73538 0.105105 0.243026 
0.707637 0.241864 0.0350553 0.75088 0.181661 0.0391972 0.768403 0.265875 0.0304545 
0.736546 0.178491 0.110523 0.727637 0.156541 0.172535 0.756146 0.167116 0.263415 
0.773998 0.229943 0.155204 0.769747 0.242771 0.262435 0.731708 0.209497 0.212746 
0.703216 0.391132 0.0363939 0.765337 0.327653 0.0314096 0.720544 0.3334 0.103398 
0.747394 0.25178 0.0925811 0.732952 0.41841 0.0925662 0.764661 0.373798 0.127245 
0.703735 0.387122 0.140964 0.748057 0.3199 0.263464 0.734134 0.28137 0.197344 
0.697102 0.420321 0.260497 0.726477 0.513011 0.0871105 0.752189 0.463475 0.0378111 
0.797049 0.484076 0.0864784 0.755042 0.468852 0.13524 0.790232 0.419202 0.170504 
0.675238 0.493326 0.266645 0.804177 0.51171 0.26417 0.773412 0.400156 0.260577 
0.741063 0.480857 0.246331 0.718355 0.548029 0.263651 0.669837 0.598519 0.0391241 
0.694062 0.664452 0.0315315 0.737465 0.532669 0.175737 0.761459 0.580793 0.121804 
0.678956 0.6134 0.2674 0.752886 0.585205 0.216573 0.743547 0.621608 0.267491 
0.673523 0.723905 0.0322253 0.747824 0.747893 0.111853 0.758191 0.691611 0.038476 
0.727953 0.754803 0.0312105 0.7483 0.655356 0.0971599 0.740202 0.692877 0.261124 
0.688237 0.816256 0.208852 0.727143 0.691649 0.146903 0.751638 0.744664 0.178781 
0.694285 0.744164 0.269539 0.702104 0.933507 0.0399811 0.717491 0.852628 0.03461 
0.681605 0.824281 0.0844166 0.694188 0.887529 0.0953225 0.739752 0.80947 0.15949 
0.738107 0.837674 0.260085 0.733442 0.774684 0.229745 0.68123 0.885418 0.265523 
0.712525 0.87724 0.207155 0.688148 0.950531 0.268913 0.717688 1.01985 0.0398206 
0.725649 1.06827 0.0896159 0.727939 0.951586 0.107521 0.689475 0.946426 0.205788 
0.672052 0.975274 0.138863 0.692996 0.917602 0.150396 0.730779 1.00855 0.155171 
[...]
POINT_DATA 1274
FIELD FieldData 10
VELOCITY 3 1274 double
0.00067432871528 -0.0010667044094 -0.00021328392981 6.3105325072e-05 -0.00058610044309 -0.00026857381442 0.00054335266167 -0.0013143491351 -2.1166026777e-05 
0.00068042437707 -0.0018715331757 0.0012119715334 0.00017674057478 -0.00066571338932 -0.00013004118499 4.6822361592e-06 -0.00041147455369 -6.9574258313e-05 
0.0002220966872 -0.0005404525279 -0.00021157295066 -0.00070370393293 -0.0011176372468 2.6614935531e-05 0.00047554899975 -0.0011596173766 -0.00036282438677 
0.00046149401645 -0.00053787708037 0.00039108101201 0.00045976747879 -0.0010073654553 -0.00020533319595 0.00039920366994 -0.0010870748974 2.9601846232e-05 
0.00042835530625 -0.0010003659932 1.2796749909e-05 0.00041632480952 -0.00099894184213 0.00024879847995 0.00020527798329 -0.00061398357639 0.00020742618408 
0.00035671656991 -0.0007656913073 -3.4339821304e-05 0.00034886080098 -0.00082599081092 -3.9323065162e-05 0.00040201233258 -0.00099912142052 2.374967851e-05 
0.0006372863265 -0.0010047315535 -0.00015611843695 0.00026224842361 -0.00054433697176 -0.00010043516193 0.00034587416384 -0.00088924678967 -6.0079332446e-05 
1.9145646617e-05 -0.00078296564671 -7.1096997369e-05 0.00021881960276 -0.00049263983354 -0.00016671245696 0.0002138608968 -0.00053066125077 -0.00015668744284 
0.00040941487765 -0.00098368492906 -6.4277480797e-05 0.00022563115924 -0.00059533529161 0.00017104426054 0.00020138109653 -0.00051724754317 5.6664958778e-05 
0.00044206095781 -0.0010646814226 7.4914481048e-06 0.00037141708962 -0.00098541542439 -0.00062850515402 0.00028669152359 -0.0007324145392 -0.00044601129469 
3.2309114397e-05 -0.0012081206309 1.3775554382e-05 0.00027764916463 -0.00057374096717 -6.3409391954e-05 0.00025231498687 -0.00063226523187 -0.00012839756119 
0.00019048662383 -0.00089163818096 -0.0001281845643 0.00066089598914 -0.00099415636476 0.00011723348017 0.00029243120881 -0.00073138311569 -0.00023090729043 
0.0002411427018 -0.0008540983762 -8.4780432724e-05 0.00029461316155 -0.00065825002252 -0.00013317398217 6.420008689e-05 -0.00079970978701 -0.00014286712136 
0.00011959950254 -0.00030231926358 7.9033218417e-06 0.00056142289668 -0.0010217666627 -0.00025918346468 2.3189090564e-05 -0.00082990729871 -4.068496243e-05 
0.00033536232502 -0.00074669205327 -0.00021899532891 -6.5776448002e-06 -0.00053987541258 7.7896125618e-06 0.00029975157475 -0.00073289380037 -0.00029306001391 
0.00058299533563 -0.0010521215295 -3.5428278289e-05 0.00017156109796 -0.00037331509326 4.1804592188e-05 0.00031662486407 -0.00077610542159 -0.00026157970848 
-0.00018045140305 0.00034829341556 -3.76118312e-05 0.00094719249336 0.00028605157392 0.00014676428416 -0.00036921557502 -0.00024525002438 0.00031121460662 
0.0004640249311 -0.00060861893674 0.00043850875496 4.6873635755e-06 -0.0021402459612 -0.0014065590419 0.00015412862658 -0.00060644555932 0.00040405336745 
5.902566276e-05 -0.00042475912264 0.00045811658768 0.00060646664623 -0.00092455110732 -0.00030546607319 0.00012512853979 -0.00026680868051 6.1444139712e-06 
0.00036970506525 -0.00034002767123 5.2246370442e-05 0.00052179488314 -0.0012596513499 -0.00062604770808 -0.00011819799094 -0.00093432586734 -0.00036682240147 
-0.00016365421733 -0.00076745976916 0.00030964508935 0.000752257451 -0.00034372094181 0.00028173189079 0.00020906456387 -0.00070337490066 -7.6244015686e-05 
-2.1118048836e-05 -0.00036217559694 -0.00013113705017 0.00027258229643 -0.00082466014744 -0.00013400967737 0.00016158758832 -0.00020162751101 0.00066996365695 
8.5709010454e-05 -0.00039514464279 0.00032092975571 0.00046055847298 -0.00069482889261 -5.9896673782e-06 0.00059295834018 -0.00047521439258 2.935648427e-05 
-0.00083889360577 -0.0012246068287 -1.8278130018e-05 0.00010730107315 -9.5077429968e-05 -9.4802007621e-05 0.00019430502941 -0.00092281154936 9.2848508789e-05 
0.00010073315248 -0.0010788270877 -0.00061648582634 0.0011526246358 -0.0003505263727 -0.00017522531039 0.00010740835745 -0.00083265169845 0.0001927661536 
0.00082253698602 -0.0015548151351 0.00090033586261 0.00088728720002 -0.00092150326622 -0.00012141678975 0.00034824235602 -0.0009507630893 7.9331007911e-05 
0.00015035742355 -0.00075857913295 3.7400343378e-05 0.00082086741856 -0.00062485098832 8.2221884756e-05 0.00032066690943 -0.00083495868571 2.4470730194e-05 
0.00012097292713 -0.0005466841729 -0.00025714267049 0.00038822034986 -0.00032764703012 -0.00058167346366 0.00059897921013 -0.0013993989877 0.00030312806634 
0.00043138312188 -0.00093889403652 0.00038683897831 0.00038164724204 -0.00092412819279 -0.00011162392512 0.00019323272446 -0.0008588081698 0.0001375614217 
0.00013193940753 -0.00078797122512 -0.00073961719147 1.046106525e-05 -0.00088297671116 4.4243721828e-05 3.1189584623e-05 -0.0008305610663 -6.5456640057e-06 
0.00059268380349 -0.0010302650938 -0.0004662574583 -0.00065027074538 -0.00057588802131 -1.9637471112e-05 8.1528184902e-05 -0.0010098577855 3.7690212174e-05 
0.00047100030476 -0.0008977181795 -3.0483157917e-05 8.6720307356e-05 -0.00091156984161 3.8179471374e-05 -0.0001232608843 -0.00093187489969 2.5136173441e-05 
0.00025292655277 -0.0010836253298 0.00038619317053 0.0007904318555 -0.0007684425476 7.3636637015e-05 0.00078507812514 -0.00053206881451 0.00011039298886 
-2.2284892378e-05 -0.00071887911834 0.00055506104952 0.00029359814923 -0.00061089606529 -0.00017002157248 0.00015914120601 -0.00087597976634 -6.0003689893e-06 
0.00099392885732 -0.0014542780793 2.3362405903e-05 -6.0219855218e-05 -0.00077567026245 4.6062715391e-05 9.4802895124e-05 -0.0011684200083 -0.00018603467442 
-0.00011673203292 -0.0007121637444 -9.8856242051e-05 0.00017417237481 -0.00087557671905 0.00010637233522 0.00018586502795 -0.00074505278512 -2.0211535001e-05 
0.00028205394494 -0.00059320865177 -1.7024141121e-05 -8.5798449258e-06 -0.00083186793402 0.00030762515567 -2.4642446544e-05 -0.00095066640406 0.00028419953533 
0.00068010295814 -0.0011445111421 0.00012508663641 -9.3875807345e-05 -0.00063239413781 -0.00030297436328 0.00013686455516 -0.00059463102192 0.00011161423279 
1.6577201533e-05 -0.00075034583715 7.1752635838e-05 0.00022357836736 -0.00095681998334 0.00042429923542 -0.00013259930375 -0.0009870600951 -1.3124559073e-05 
-9.9838086809e-05 -0.00067322860894 0.00013478637366 9.2380492587e-05 -0.00054692033548 -4.4415356093e-05 -3.2849058911e-05 -0.00097846349183 4.6111757188e-06 
-0.00014836115624 -0.00076945969159 -5.9279770168e-05 0.0001007649375 -0.0004774832007 -0.00020585168217 0.00010613067916 -0.00069556101364 0.00027652697026 
0.00061104517074 -0.00096657010287 1.7040844727e-05 0.00037793715559 -0.00076982910035 -0.00015530645124 1.464931371e-05 -0.00063437597255 -0.00047325764548 
6.5319141082e-05 -0.00071541844025 -1.5368448511e-05 0.00010278886444 -0.00085842068219 -4.2804693418e-05 0.00054583903924 -0.00083979873538 0.00060021651751 
0.00033446193459 -0.00078290618727 -2.7369424847e-05 0.00012611305334 -0.00048831046083 1.0533397502e-05 0.0002506387128 -0.00078623881352 -1.7364424327e-05 
0.00045401909834 -0.0005922067276 5.1941973908e-05 3.1421676295e-05 -0.00078207971026 -5.1477848751e-05 0.00030410292683 -0.00084767387254 0.00014913227464 
0.00035867161659 -0.0016603174296 0.00031164094377 -0.0001619303352 0.00013589832364 0.00010077987132 3.4896371456e-06 0.00034011996261 -0.00025520768754 
-0.00015305708805 -9.2352016443e-05 0.00043601992017 -0.00027226785333 -0.00036054086281 6.1420586961e-05 -0.00011664180544 0.00038765796355 0.00067556557854 
1.0541094506e-05 0.00038398204435 0.00052111876116 0.00011971586134 -0.00046056403879 0.0008629750099 -0.0015196818107 -0.0017817102251 0.00017875872042 
0.00073240487352 -0.00020370616067 9.8532095419e-05 -0.00030955484113 -0.00050698572031 4.3312539135e-05 0.00050220165884 -0.00090807063791 0.00029158846418 
-0.00055663826493 0.00054157179398 0.00023193441537 0.00019257564294 -1.5453231991e-05 0.0012893958959 -0.00043266028359 -0.00050979037733 -0.00098537549567 
0.00059404106501 -0.00061085389407 4.0260084339e-05 0.00079917550426 0.00028536645304 -0.00026302289175 0.00055980970987 -0.00078878975381 -0.0011245451332 
0.00040222002138 -0.0010366309128 0.00092953513758 0.00059851270434 -0.00087186748386 1.3045245442e-05 0.0004193705569 -0.00054903645129 -0.00016625766439 
0.0006300200038 -0.0013196078319 1.0824664418e-05 -0.00025948211605 -0.0012312401156 -8.5252233443e-05 -0.00037068085947 -0.00054186006148 0.0002741642733 
0.00064100065401 -0.00024530622066 -1.8398067649e-05 0.00024474256432 -0.0010154540335 0.00067689396351 0.00023172025335 -0.00092826718729 6.9171730889e-05 
0.0007871444449 -0.00081445161163 0.00034494043501 0.0004473665357 -0.00064890182039 5.8806238481e-05 -0.00020961603357 -0.00043443388474 -0.00018343903933 
-0.0014125740948 0.00038669534111 -0.00016093469579 0.00041304270203 -0.00017487183784 -9.4801337251e-05 -9.6324347114e-05 -0.00097847509632 2.1276049037e-05 
0.00035560500566 -0.0014179827632 -1.4097777186e-05 -0.00080453125842 -0.00034581439389 -0.00013320784084 0.0001162213581 -0.00082962050393 -3.7006421641e-05 
-4.0425347312e-05 -0.00039019846734 7.2249232816e-05 -0.00023645388814 -0.00060144773061 0.00033615712508 0.0002739519309 -0.00077783693156 0.00044017713597 
-0.00024916578905 -0.0012379137219 -0.00039804443589 0.00020734867411 -0.00073538506023 -0.00051207759008 0.00034580874959 -0.0014021470306 -0.00015597374099 
-0.00027203047567 -0.00083761459545 0.00010446414387 -0.00012164890951 -0.00071880950925 -1.4601972335e-05 0.0001441831836 -0.00073076501865 -2.1710862323e-05 
0.00018250307156 -0.00069907341741 0.00012639518288 0.00018614141995 -0.00069557632502 -0.00016089279121 0.00039937523827 -0.0013819785291 -0.0010228757389 
0.00057378279439 -0.0010899965139 4.5187608871e-06 0.00020013679966 -0.0013990664252 -0.00094165380166 -7.3414571731e-05 -0.00076896443357 0.00052480890952 
0.00040177583337 -0.00068043875708 0.00052822503144 0.00031123274056 -0.00055802529009 -0.00035888092719 0.0001680594051 -0.0008647592798 3.7319316694e-06 
-0.00017221856296 -0.00045164811668 -3.3618503102e-05 8.5423571041e-05 -0.00087368521504 -0.00010371225595 -8.9307177624e-05 -0.00065219852545 -4.1486718916e-06 
3.4319739048e-05 -0.00075641356158 -6.3904263227e-06 7.0616192018e-06 -0.0012998310219 1.0012968696e-05 1.8559118278e-05 -0.00061443770382 -6.1721555739e-05 
-0.00031657915805 -0.00048100905422 -1.4343507773e-05 -0.00022537831408 -0.00067882876589 -9.4115288057e-05 -0.00059159750683 -0.00056092366503 0.00033659256314 
0.00020647064614 -0.00075178164095 8.2946296582e-05 0.00014520967304 -0.00058533784714 -2.3432748384e-05 0.00015335970058 -0.00084538055458 -2.9562015859e-05 
-0.0003818001175 -0.0008690142643 0.00023685129997 0.00017598587772 -0.00056596371126 6.3163777991e-05 0.00017622285533 -0.00090712620755 0.00010754000913 
0.00018685306173 -0.00043444417903 6.4283787235e-05 0.00020755858786 -0.0010306688978 -0.00067360665319 0.00028357035388 -0.00072641970039 -8.5821101184e-05 
-0.00017505089505 -0.00088450354585 -4.1098270892e-05 0.00011524170444 -0.0010980103364 -7.9179343734e-05 0.00022189901557 -0.00091386821614 -8.0143809849e-05 
0.00021596650444 -0.00079572039055 0.00015924824996 4.8008995852e-05 -0.0010256767679 0.00010780310196 9.8091960797e-05 -0.0010390844205 5.2712834779e-05 
0.00025782358227 -0.0015084641114 -7.8988575161e-05 -8.1366926865e-05 4.786287e-05 -0.00039286484384 7.2679024096e-05 -0.00018383755728 0.00031786398692 
-7.110848723e-05 8.2866430727e-05 0.00093293194389 0.00023591418938 -0.0010105003326 -9.8893767964e-05 -7.8443848977e-05 0.00029093476212 0.00082967407568 
-0.00051865471619 -0.00052322668311 -7.1837332691e-05 -0.0002601378616 -0.00042727752214 -0.00043988665554 -0.00064078536196 0.00059037594972 0.00025546377473 
0.00026975690099 -0.00037320357706 -0.00061138000338 -4.3330237538e-05 -0.0005662186818 -0.00049837823672 -8.3654395283e-05 -0.00053866246636 -0.00013847877089 
0.001234873759 1.5202380838e-05 0.00024984642046 -0.00021293528117 -0.00080544279424 0.0002950532915 -0.00019854301053 -0.00068531044421 -0.00099600885432 
-0.00065619739424 -0.00047845491855 7.6457282513e-06 0.00061215714287 -0.00079151658866 0.00020517899478 -9.9814887467e-05 -0.00048626688201 -0.00041465729686 
0.00045209057688 -0.00077737304357 5.9165881097e-05 0.0006221713515 -8.6149548582e-06 -7.2979119952e-05 0.00017312273814 -0.00011631705061 9.5705435969e-05 
-0.00010716004258 0.0012758675963 0.00056002989416 0.00052570390378 -0.00090988976907 0.0002065260999 -0.0015131771541 -0.00063649535365 -0.00019643616721 
0.00033087180014 -0.00024545216071 0.00030436015852 0.00055192869462 -0.00011979151792 -0.00043542328852 0.00031930199634 -0.0014431145068 0.0004289961985 
0.0004467151606 -0.00097689452526 9.0819897833e-05 0.000671052745 -0.00096072679425 8.4937197761e-06 0.00035656307269 -0.0007811309632 0.00010941360686 
0.00034991844489 -0.00066792981113 0.00043026071617 0.00072693362526 -0.00022364218982 -8.0456425748e-05 0.00091589058102 -0.00080499889935 0.00018829809094 
0.00102075157 -0.0009364150185 5.0171030697e-07 0.00032515500144 -0.0012980083865 0.00071484285338 0.00040409337625 -0.0015570951897 -0.00048244280338 
0.00038525907893 -0.0010972760001 0.00107885438 -0.00022336978631 -0.00050511565921 -0.00038979005597 0.00076131433171 -0.0013962200073 -0.000516741125 
0.00073006710004 -0.0006305483419 0.00058418296465 0.00055678983069 -0.0010700125332 0.00049887062035 0.00032875974125 -0.0011555295566 9.4267168379e-08 
-5.8825489784e-06 -0.0015406117161 -2.6569206102e-05 0.00013230787444 -0.0011636755193 0.00071988012978 0.00018217137536 -1.8561783277e-05 -0.00011336405194 
0.00062042591924 -0.0017384700189 0.00015639512469 0.00025914252906 -0.00047188202489 6.8598693019e-05 0.00013071756062 -0.0018085584483 3.3977359256e-06 
-0.00020321679424 -0.00082868173156 0.00043604169909 -0.00020552980613 -0.0007673972105 -4.4253488588e-05 -0.00029552279065 -0.00080002018556 -5.1726469758e-05 
0.00050638015368 -0.00078618913292 0.0001757550737 0.00021685593573 -0.00082029668615 -0.00032514483571 0.00018281486544 -0.00083092105345 -0.00072975830693 
0.00015934402154 -0.00075454725458 -0.00016343871733 0.0003187887162 -0.00073783455942 -1.3468648934e-05 0.000769827516 -0.0011582017173 -9.1122618073e-05 
-0.00018310897349 -0.0008591139012 -0.00023396295103 -0.00013606272748 -0.0018200691127 -0.00014004223755 -0.00030154097501 -0.0012580511521 0.00015470026122 
0.00045803922378 2.6599017414e-05 -1.8287751846e-05 3.6443525814e-05 -0.00084663951599 -0.00035036107784 0.00023081622942 -0.0010034459945 5.8183025097e-05 
0.00011191663031 -0.00069392466965 -0.00021798803336 0.00047780334068 -0.00091540979246 -9.6995852216e-06 -9.9023145841e-05 -0.00047971394176 -0.00043614338911 
0.00021536303664 -0.0006268930833 -0.00010920645495 -0.00013812835528 -0.00078551643466 0.00017191500734 0.00016788306473 -0.00098972562976 -0.00048802058464 
-9.2023635868e-05 -0.00075011587897 -0.00032172872144 0.00012436361775 -0.00091300850577 -0.00010564215013 0.00013596413506 -0.0010537969152 7.0620200628e-05 
-0.00018704349745 -0.00057366783028 8.9750974314e-05 -0.00059640852065 -0.0012740252351 -0.00071330122875 2.7248838346e-05 -0.00068114953063 3.7488602434e-05 
0.0005154503868 -0.00092909946557 -0.00028138990957 0.00055483649024 -0.00076437838842 8.4360665246e-05 5.6744117897e-06 -0.00087094386195 2.038686775e-05 
5.1123645598e-05 -0.0010771732067 3.6487933592e-05 0.00015562858106 -0.0010297371351 -2.1196109401e-05 0.00096454084612 -0.0016870369682 0.0005926378328 
0.00078735104117 -0.00048825803882 0.00010423716968 0.0001661957763 -0.0012897398143 0.00035783379658 1.3269586059e-05 -0.0010209200874 0.00019363678323 
0.00047170998817 0.00048612361674 0.00022708624724 0.00045752170913 -0.00062087376936 0.00045012454172 -3.3571904872e-05 -0.0002830087428 0.0010608233356 
-0.00095430537174 -0.0013463463971 0.00089446496544 0.00018555550097 -0.00037887063653 -7.8051504763e-05 0.00076324069635 0.00053554671661 0.00066742597857 
0.00052531230326 6.0728593037e-05 0.0017203669448 -0.00067299016406 -0.0011576873154 -0.00054749120497 0.00034457580925 0.0013875059154 -0.0011979444096 
0.00038945332273 -0.0005220690907 0.0014346852928 -0.00070473486876 0.00030187036831 -0.00087817675979 8.9181812032e-05 -0.00029599422202 6.0093770668e-05 
-0.00017301387578 -0.00052311013222 -0.00046723174436 2.6381579538e-05 -0.001155520184 0.0011500070319 0.0010841257871 6.4356590386e-05 -0.00017980910497 
0.00023036105157 -0.00040670601099 0.00011984967308 0.00053257849151 0.00011066309461 0.00070499281534 0.00071900423941 -0.00030236536917 -1.3251697166e-05 
0.00027112689465 -0.00047960048579 -0.00030620285299 0.0006887911953 -0.00086447627355 -2.8467343119e-05 -7.8985353434e-05 -0.00026832176795 0.00062764914382 
-0.00014236240602 -0.00076863852504 -0.00028657091581 0.00023710025727 -0.00049884643444 2.6620706421e-05 -0.00075807432094 -0.00047084959945 -0.00056617534066 
0.00016751424694 -9.2710862628e-06 0.00033757116235 -0.00042664822085 -0.00078644201632 0.0010503272748 -0.00086051579881 0.00011388177047 -7.2056228898e-05 
-0.0010478594661 -0.00034813013332 -0.00039373060367 0.00056326181866 -0.00018174848297 0.0011352156594 0.00038188745357 -0.00036365847543 0.00077090349314 
0.00036925808214 -0.0018927759672 3.9782275315e-05 0.00045157902743 -0.00043518879862 0.00029488852458 -0.00023177128607 -0.0017212624035 0.00018778985112 
0.00040175954634 -1.2432498209e-05 -0.00066832330107 -3.711134621e-05 -0.00055168177827 -1.2477609579e-05 0.00037404510784 -0.00058664154862 9.0417415276e-05 
-0.00022602042391 -0.00030218917666 0.0002216014563 0.00057284918742 -0.00092574859103 0.00078872989341 0.00015510192138 -0.00036666260739 0.00086530851893 
0.00042572359112 -0.00072637147585 -6.2162068005e-06 0.00036402944345 -2.4392956834e-05 -0.00045220231822 0.00044615432881 -0.00063666777416 5.9596812915e-06 
-0.00010907719167 4.9416653947e-05 -0.0007349981011 1.1490132073e-05 -0.00085933019726 0.00010262031536 -0.00044611188987 -0.00079094872422 3.8735098912e-05 
0.00028801596235 0.00052369706822 3.2401838232e-05 -0.0005235999394 -0.00091475290805 0.00030298783014 0.00023200168268 -0.00084424517003 -1.5279790226e-05 
0.00066722619214 -0.00085944911112 3.4675866746e-05 0.0005170991884 -0.0008945510008 0.00059700261764 -0.00014621340522 -0.0007089602809 -0.00035763110385 
0.00038211570305 -0.000774455137 6.8056984316e-06 4.8387759324e-05 -0.00084599844288 -5.0447852192e-05 0.00016331764678 -0.001010755102 -9.5346684898e-05 
0.00010593449205 -0.0010226963727 -0.00010303743213 -0.00026642723475 -0.00090115143653 -7.3679381453e-05 0.00065254557844 -0.00055553086899 0.00012561762477 
0.00061418656641 -0.0016440527668 -6.1311407459e-06 -6.7062507112e-05 -0.0016948197628 0.00040808164612 -0.00039640843427 -0.00077436303262 0.00038564360748 
3.9509107726e-05 -0.00091538177622 0.00086021891831 -0.00030791740033 -0.00086975496395 -5.3228042815e-06 -7.4442672307e-05 -0.0011642003479 -8.8407632894e-05 
0.00045796991534 -0.0010689195727 -0.00014647008039 0.0011472163549 -0.0019346801315 -0.00019320457775 -0.0001888227002 -0.0015993594555 7.3420647243e-05 
-0.00021785170706 -0.00047870434926 0.00046011025137 0.0001253221806 0.00022419781591 -0.00088802422252 0.00049370653515 -0.0010937049455 -0.00063496531874 
0.0001842351869 -0.00064199249229 4.7746417453e-06 -9.4124583087e-06 -0.0015037147104 -8.7136991619e-06 7.6285654129e-06 -0.0014120022614 -0.00018569756119 
0.00025156775713 -0.0009393652578 0.0002621216015 -4.9804798112e-05 -0.0013963265498 3.0635664061e-05 0.00037546147713 -0.0015061465344 -0.00014071827173 
0.00029753332864 -0.0016878677372 -3.4261872063e-05 0.00080496755093 -0.00051983172923 -3.6514083921e-05 -9.9200131677e-05 -0.0010320733085 -0.00031242751685 
-0.0002399182001 -0.0018307282853 -4.7957339408e-06 0.00015987337791 -0.0013399919402 -8.2394249782e-05 0.00057520009024 -0.0012621301679 0.00015174137153 