# vtk DataFile Version 4.1
vtk output
ASCII
DATASET UNSTRUCTURED_GRID
POINTS 1274 float
0.512135 0.555912 0.0379512 0.469062 0.6523 0.105448 0.487252 0.599515 0.268458 
0.494304 0.588631 0.0994306 0.423124 0.757282 0.0323136 0.424034 0.769477 0.119117 
0.475166 0.638393 0.213096 0.459772 0.671607 0.268648 0.393092 0.847139 0.059436 
0.397954 0.81385 0.164135 0.445218 0.70102 0.215237 0.432032 0.740706 0.265756 
0.362136 0.904496 0.0319703 0.34292 0.970228 0.0514826 0.380787 0.879719 0.146332 
0.394192 0.845887 0.231904 0.344689 0.959149 0.260008 0.313169 1.04114 0.0387193 
0.389284 0.915714 0.08684 0.446797 0.900183 0.110199 0.331543 0.997875 0.129751 
0.408636 0.916559 0.21837 0.309935 1.0389 0.265122 0.351551 0.930602 0.18789 
0.280728 1.10399 0.0482825 0.32755 0.988848 0.200414 0.286121 1.10941 0.260298 
0.257006 1.16426 0.0336645 0.356174 1.11757 0.105282 0.301331 1.07024 0.109653 
0.289525 1.25405 0.0382189 0.302399 1.04652 0.200315 0.283037 1.10178 0.172674 
0.332454 1.25731 0.0929949 0.383699 1.15969 0.0370718 0.275056 1.14966 0.110576 
0.420719 1.15163 0.106651 0.260179 1.15179 0.208812 0.339811 1.10838 0.211489 
0.218329 1.25701 0.0332147 0.319026 1.18798 0.0546801 0.319294 1.15813 0.173804 
0.244217 1.20031 0.164818 0.287558 1.18412 0.26484 0.238558 1.22337 0.0939677 
0.370896 1.2336 0.0356631 0.236221 1.23102 0.236669 0.215192 1.25794 0.149904 
0.540295 0.471565 0.0302104 0.61144 0.295877 0.0941828 0.595238 0.359469 0.120658 
0.596729 0.348057 0.196815 0.575865 0.389441 0.266499 0.609719 0.315291 0.261436 
0.540361 0.470826 0.209939 0.508267 0.55893 0.219376 0.603262 0.32922 0.0358989 
0.566502 0.417939 0.159195 0.4832 0.626001 0.0391057 0.61005 0.477029 0.0481088 
0.545687 0.475697 0.0985202 0.549306 0.448776 0.268473 0.564879 0.573243 0.262776 
0.527111 0.513198 0.159508 0.549995 0.669912 0.0308579 0.444992 0.712439 0.0781911 
0.517296 0.698776 0.105855 0.470846 0.754911 0.178151 0.550559 0.548884 0.100692 
0.523368 0.660068 0.266702 0.445919 0.697977 0.146506 0.414256 0.779258 0.214278 
0.500764 0.68236 0.170625 0.553768 0.578323 0.168519 0.49365 0.782135 0.0917598 
0.534715 0.762321 0.146135 0.457695 0.816486 0.0363748 0.508188 0.726105 0.0397539 
0.483973 0.819326 0.150697 0.436025 0.836915 0.113385 0.363882 0.895787 0.269731 
0.498829 0.770843 0.260787 0.538496 0.61904 0.219127 0.56287 0.749096 0.220336 
0.467342 0.817126 0.213526 0.506069 0.707705 0.227094 0.459768 0.891152 0.0402063 
0.520426 0.855739 0.0357534 0.535035 0.792929 0.0326224 0.454189 0.877422 0.177798 
0.494296 0.851853 0.0956617 0.465547 0.871595 0.260664 0.43822 0.80557 0.269011 
0.416239 0.95313 0.037363 0.373284 1.09127 0.0325888 0.465338 1.00609 0.033128 
0.399782 0.998627 0.0945565 0.414613 0.949717 0.150277 0.467259 0.965475 0.0911316 
0.485421 0.942641 0.261365 0.419524 0.973968 0.261479 0.534819 0.985172 0.268901 
0.458965 0.954517 0.202897 0.383213 1.02629 0.0323972 0.365223 1.05688 0.0852578 
0.463341 1.03345 0.0904077 0.362398 1.06444 0.15852 0.395027 1.00599 0.196909 
0.44135 1.05218 0.264238 0.376736 1.03035 0.267466 0.48339 1.00534 0.235781 
0.455803 1.138 0.0385393 0.470316 1.08443 0.123216 0.42689 1.04347 0.138822 
0.361173 1.09174 0.269156 0.524902 1.18073 0.176365 0.490136 1.10422 0.267881 
0.40796 1.08952 0.2131 0.4296 1.13475 0.26422 0.445244 1.12204 0.166689 
0.359071 1.16185 0.260112 0.510209 1.18852 0.0381857 0.497907 1.1483 0.119451 
0.435795 1.20779 0.0341937 0.369015 1.20349 0.10135 0.380942 1.13469 0.166483 
0.338958 1.23818 0.260952 0.452919 1.16926 0.207633 0.401992 1.2081 0.220839 
0.469337 1.19193 0.266121 0.486658 1.25652 0.0362705 0.312067 1.21381 0.137408 
0.459782 1.2505 0.226513 0.300151 1.21428 0.20412 0.473204 1.21421 0.169817 
0.372408 1.23126 0.163559 0.639644 0.231381 0.178828 0.564349 0.412249 0.0315353 
0.659977 0.193084 0.0557226 0.66144 0.287365 0.212705 0.639939 0.241662 0.26351 
0.66898 0.174362 0.206867 0.642865 0.223133 0.115016 0.631911 0.407402 0.036343 
0.592551 0.424129 0.0894889 0.526767 0.510417 0.265844 0.604683 0.488373 0.262792 
0.617396 0.291064 0.158936 0.638862 0.377765 0.245548 0.613667 0.460859 0.137026 
0.587158 0.547736 0.0375171 0.660399 0.424313 0.101925 0.533694 0.637275 0.132151 
0.603852 0.529321 0.146539 0.574887 0.525796 0.211593 0.592102 0.434113 0.220477 
0.613294 0.624972 0.266299 0.603486 0.719524 0.0390318 0.555191 0.611252 0.0648363 
0.568843 0.735545 0.098448 0.566032 0.699263 0.15733 0.59974 0.711141 0.268228 
0.590605 0.635459 0.1742 0.643119 0.642232 0.210845 0.57209 0.673094 0.224361 
0.596442 0.760024 0.15992 0.586614 0.667192 0.0961022 0.63947 0.788808 0.0390293 
0.561287 0.79813 0.0908364 0.542002 0.815141 0.189836 0.545049 0.832902 0.261832 
0.615848 0.775627 0.265249 0.516164 0.874318 0.210413 0.625094 0.710209 0.200585 
0.600517 0.823039 0.221661 0.5848 0.83825 0.0356875 0.560634 0.862334 0.0931002 
0.565554 0.911248 0.0397007 0.503392 0.945171 0.0315428 0.55199 0.910309 0.260436 
0.598006 0.968055 0.265549 0.528182 0.863729 0.146524 0.50562 0.925044 0.17319 
0.53483 1.00478 0.0510835 0.522383 0.91788 0.106971 0.473546 1.06027 0.18901 
0.467946 0.996536 0.154776 0.536939 0.989611 0.138503 0.517969 1.04779 0.269179 
0.571004 0.945617 0.192477 0.436259 1.06744 0.0347798 0.539477 1.1259 0.0335714 
0.573004 1.06591 0.0351734 0.503878 1.06661 0.0328709 0.552165 1.10837 0.0954357 
0.522767 1.05095 0.104817 0.543284 1.00949 0.209329 0.50271 1.12648 0.205506 
0.537985 1.23497 0.0889782 0.57371 1.21211 0.0322879 0.563071 1.1779 0.123275 
0.523026 1.09262 0.1524 0.604521 1.08811 0.268671 0.539388 1.23894 0.159039 
0.533957 1.21327 0.238182 0.565732 1.13163 0.180556 0.557787 1.07401 0.214354 
0.553805 1.13818 0.259467 0.639275 1.20793 0.0432428 0.621433 1.21056 0.110613 
0.464222 1.21591 0.100675 0.647319 1.23709 0.22133 0.59494 1.20009 0.186372 
0.75871 1.1863 0.207859 0.679025 0.130778 0.0405643 0.693347 0.119424 0.11272 
0.721563 0.0322005 0.192886 0.681983 0.134327 0.265517 0.698039 0.094031 0.181335 
0.636972 0.262683 0.0387343 0.695001 0.315662 0.0396739 0.702568 0.225145 0.149621 
0.704178 0.266925 0.267353 0.640317 0.406678 0.17462 0.694922 0.200083 0.267451 
0.678314 0.327605 0.2667 0.662536 0.336647 0.137815 0.680422 0.459083 0.0422804 
0.659058 0.495486 0.0972105 0.65231 0.357819 0.0777702 0.685845 0.467298 0.158349 
0.649042 0.462405 0.216812 0.6812 0.278755 0.104554 0.728573 0.426083 0.197156 
0.690623 0.353837 0.201194 0.611334 0.645842 0.0351628 0.661957 0.52589 0.0349401 
0.635091 0.558437 0.0890015 0.59518 0.600193 0.120082 0.647806 0.60825 0.156594 
0.663718 0.684298 0.262135 0.637836 0.547069 0.269081 0.686779 0.582963 0.207127 
0.616707 0.579063 0.208418 0.672325 0.547772 0.149947 0.677256 0.516807 0.206215 
0.628388 0.716056 0.12252 0.658007 0.65586 0.0912471 0.696912 0.573088 0.0972335 
0.708228 0.628211 0.138362 0.717191 0.647762 0.206934 0.660744 0.823947 0.268703 
0.664796 0.672695 0.159373 0.623916 0.803221 0.11681 0.647315 0.877436 0.0390991 
0.689748 0.762314 0.07959 0.70791 0.70358 0.0846457 0.679986 0.763443 0.14907 
0.636828 0.776449 0.203025 0.696667 0.716181 0.204786 0.613621 0.869519 0.265678 
0.582937 0.872856 0.181614 0.614808 0.970324 0.0372508 0.668634 0.985547 0.0763659 
0.629395 0.86937 0.10607 0.643434 0.927699 0.0888442 0.586801 0.909175 0.126048 
0.609901 0.968239 0.138993 0.634201 0.985408 0.20966 0.676356 0.850193 0.147984 
0.635909 0.923426 0.233763 0.643777 0.866675 0.207036 0.633063 0.917135 0.169158 
0.630435 1.10803 0.0300653 0.641966 1.04084 0.0402369 0.69443 1.09321 0.0358785 
0.574228 0.957609 0.0911309 0.593937 1.0219 0.0955691 0.667516 1.04307 0.115834 
0.577939 1.03121 0.260424 0.613558 1.02625 0.161773 0.671642 1.03217 0.184307 
0.61659 1.09046 0.0912006 0.621701 1.14404 0.138796 0.696834 1.16613 0.0370847 
0.596252 1.15478 0.0648461 0.582565 1.07922 0.146962 0.624 1.05668 0.21711 
0.741269 1.13278 0.0834937 0.635939 1.13346 0.223592 0.661009 1.09324 0.167478 
0.60369 1.19659 0.263608 0.749134 1.21349 0.033559 0.790495 1.18332 0.100869 
0.689421 1.1701 0.10613 0.672524 1.19918 0.168332 0.677305 1.18811 0.260311 
0.722178 0.0831838 0.0341644 0.754106 0.121992 0.0764321 0.71819 0.0490169 0.117535 
0.784009 0.0582474 0.125435 0.723249 0.0419733 0.26252 0.734971 0.10546 0.242288 
0.707774 0.242175 0.035059 0.751053 0.18199 0.0391983 0.768659 0.265877 0.0304511 
0.737173 0.177696 0.110562 0.728089 0.156649 0.17286 0.75571 0.167347 0.2634 
0.774156 0.230354 0.155842 0.769635 0.243801 0.262057 0.731074 0.210011 0.212615 
0.702933 0.391252 0.0363959 0.764622 0.327598 0.0316687 0.720305 0.333421 0.103229 
0.746954 0.25238 0.0929319 0.732361 0.418988 0.092505 0.764449 0.374204 0.126609 
0.703563 0.387186 0.140818 0.747745 0.320523 0.263464 0.734727 0.282078 0.198364 
0.69702 0.419963 0.260497 0.726583 0.513948 0.0860807 0.752718 0.463627 0.037811 
0.797284 0.485349 0.0862584 0.754515 0.46924 0.134069 0.789662 0.419882 0.169785 
0.674475 0.494302 0.266635 0.803957 0.511443 0.264172 0.773825 0.401776 0.260576 
0.740391 0.481094 0.247094 0.718104 0.548598 0.263651 0.669235 0.599475 0.0391269 
0.694627 0.664971 0.0315329 0.736748 0.533865 0.175038 0.761046 0.582016 0.121264 
0.67868 0.614009 0.2674 0.752445 0.585373 0.217061 0.743237 0.622481 0.267491 
0.673478 0.7242 0.0329775 0.747692 0.749287 0.111485 0.758495 0.692742 0.0384674 
0.727864 0.755137 0.0312089 0.748758 0.656661 0.0969625 0.739957 0.694009 0.261127 
0.687595 0.817662 0.208726 0.72638 0.693024 0.146121 0.75115 0.745458 0.178285 
0.693889 0.745161 0.269539 0.702016 0.934544 0.0399805 0.717067 0.853957 0.0346139 
0.681262 0.825786 0.0845846 0.694079 0.888961 0.0956439 0.739213 0.810417 0.159547 
0.738732 0.839416 0.260086 0.733981 0.776952 0.228701 0.681266 0.886349 0.265524 
0.713066 0.878147 0.206582 0.687899 0.951496 0.268911 0.717675 1.02128 0.0398203 
0.725434 1.06963 0.0897208 0.726972 0.953706 0.107553 0.689456 0.948536 0.205726 
0.672023 0.976152 0.138663 0.693489 0.918802 0.150853 0.730237 1.00999 0.155629 
[...]
POINT_DATA 1274
FIELD FieldData 10
VELOCITY 3 1274 double
0.0005345225807 -0.00060031781855 -0.00029053072988 -0.00030166232978 -0.0008526265121 -0.00047886265081 0.00012248462327 -0.00035543600126 1.0302588151e-05 
0.00018355004237 -0.0015970766664 0.0016106479578 0.00026649343648 -0.00093771614751 -0.00018727168431 0.0004371655711 -0.00049051650411 0.00018696509906 
0.00024186273959 -0.00018479953311 0.00034152184193 -0.00047360219747 -0.00072093040085 1.1045346502e-05 0.00043584380875 -0.0010462542562 -0.00027163127625 
0.00020496614526 -0.00075769906224 0.00031303889704 0.0003075571514 -0.0007957199666 -0.00017986202194 0.00035373909404 -0.00093729530386 7.6229346317e-06 
0.00039283199023 -0.00097150544731 -1.1250920629e-05 0.00040078481586 -0.00089217588554 2.1632011987e-05 0.00024264458897 -0.00069522812526 -2.6822539191e-06 
0.00040391332838 -0.00092048155999 1.8941878847e-05 0.00040914435411 -0.00093031842044 -1.6752380821e-05 0.00035504914982 -0.00089655151529 1.5927635307e-05 
0.00088822338683 -0.0012796705928 -0.00017455513742 0.00042944300832 -0.00055479744672 -0.00019286575886 0.00034508680099 -0.000828701411 0.00020397752056 
2.7901540348e-05 -0.0008242261323 -1.0745771171e-05 0.00024608970446 -0.00059189635946 0.00015982506116 0.0001997654524 -0.0005221598959 -0.00017404734031 
0.00037176995056 -0.00089345873613 6.724706162e-05 0.00018711088505 -0.00058602282323 0.00021730250877 0.00021416836122 -0.00049490054636 1.7772760331e-05 
0.00031899915651 -0.00076342801684 -1.388351007e-05 0.00068180688291 -0.0011760931129 -0.0005493953273 0.00030670109413 -0.00071387048186 -0.0004087385782 
0.00016682154596 -0.0011769571369 1.6392480566e-05 0.00023484707274 -0.00055040841782 -5.8399153626e-05 0.0002603515409 -0.00057649615993 -9.1054010871e-05 
0.00047469740891 -0.0010874572296 -0.00024043024163 0.00063596227918 -0.0010334626526 0.00055669609649 0.00028709765704 -0.00073238459358 -2.8378310301e-05 
0.00064041941897 -0.00088951540859 -4.061187599e-05 0.00022097569854 -0.00051087655765 4.9967860045e-05 7.069970188e-05 -0.00074324544034 -5.4384965349e-05 
0.00022632523147 -0.00063256577514 -4.2384414631e-06 0.00046085803887 -0.0010852262981 -0.00023322692981 0.00034724166743 -0.00065239092224 -0.00015435590146 
0.00029342937931 -0.00072516217028 -0.00019590045911 -0.00011737609449 -0.00054987915911 5.0918366543e-05 0.00030019445228 -0.00071664458828 -7.8233551288e-05 
0.00046997741561 -0.001026065417 2.0705343647e-05 0.00017117579048 -0.00039964323714 -0.00017255834698 0.00028327109927 -0.00071672198484 -4.401764702e-05 
0.0012825223628 -0.0020168421552 -1.2106053003e-05 0.00036885898652 -0.00085809721775 0.00039627790202 0.00069301560615 -0.00080108263384 0.00056336137541 
-0.0001982716222 0.00018250119228 0.00071176397753 0.00018172885359 0.0014121236206 0.00067159917438 0.00034305641639 -0.00098614841542 0.00032379471621 
0.00014588031191 -0.00028685156146 0.00056896632133 0.00013169212012 -9.9882425234e-05 0.00013524717867 0.00016752040766 -0.00033633839961 -5.2596016539e-05 
0.00016093856932 -0.00044701287378 0.00055180450897 0.00032776873432 -0.00082368716003 -0.00020008880536 -0.00034914419362 -0.0010990374366 -0.00015447384821 
0.00026309699999 -0.00065104111047 0.00012685433806 -1.6749481498e-05 -0.00032280794664 -0.00038605255075 -2.5079523768e-05 -0.0010199391921 4.194228472e-05 
0.00023288688983 -0.00047432767829 -8.6990626177e-05 0.0007438597075 -0.00051584505184 -8.7901090433e-05 0.00030573489435 -0.00057322429627 0.0002962761656 
0.00021191386865 -0.00068949149394 0.00086226616418 0.00079068343377 -0.00068350464132 0.00010920624712 0.00088569322466 -0.00050351715917 -0.00050091513196 
-0.00015407655046 -0.00074167401148 8.9415816162e-06 0.00028241500377 -0.00054050704081 -0.00019404264742 0.00029014211726 -0.00092267586145 2.2933497092e-06 
0.00022632409925 -0.0011210598236 -0.00059609209396 -9.8270324923e-05 -0.00055870209963 -0.00027425332962 0.00019562549934 -0.00074122122762 -7.6501661543e-05 
0.00076254654265 -0.0015431973359 0.00053383864723 0.00063521129767 -0.0010544130954 -2.6441176961e-05 0.00032740921822 -0.0010853834544 9.3931296178e-05 
0.00054130492986 -0.00089789036017 0.00013407384456 0.00035774671141 -0.00056447125503 -0.00031112224183 0.00034426119702 -0.00096782613411 3.7486986743e-05 
0.00037481432125 -0.00088387359826 -0.00011481011473 0.00020614008576 -0.00051743099501 -2.9381887068e-05 0.00056811519905 -0.0011739639534 -9.0388213559e-05 
-0.00022040725509 -0.00044072672986 -0.00050169034146 0.0001610073445 -0.00067847865094 0.00025625499685 9.620916597e-05 -0.0010085374198 0.00026871550682 
-2.9588688734e-05 -0.0013691199047 -0.00024317256301 0.00054464477005 -0.0011184452324 -5.1089138207e-05 -0.00036236513325 -0.0010121175345 -0.00011278169394 
0.00063453945841 -0.00099304476803 -0.00039491822752 -0.0003831969505 -0.00089583970848 9.1173245794e-06 0.00067141203583 -0.00086689146548 3.3738372499e-05 
0.00035557815035 -0.0007102953403 -4.0678650831e-05 7.4161103162e-05 -0.0009165143111 -2.8900817208e-05 0.00029982375548 -0.00051311661469 5.6577497822e-05 
0.00048563543009 -0.00084279150022 0.0001337115037 0.00047666619952 -0.00082361109628 0.00058020291952 0.00045580742949 -0.00074216916012 0.0002417405192 
-0.00018039374209 -0.00088786322041 0.0007558474927 -0.00017921476649 -0.00081643491439 0.00019056993442 0.00026284641766 -0.0010691059912 -6.4122288138e-05 
0.00073498515206 -0.0018445929177 0.00015134074419 0.00028993167703 -0.00088668866424 -3.5888821282e-06 0.00010974472367 -0.0013013625556 -0.0002637028265 
0.00036946240414 -0.00061506618879 0.00012329151945 0.00019658542599 -0.00070355626994 -5.07051939e-05 0.00022695410127 -0.0006209038949 -5.3718597068e-05 
0.00033391679504 -0.00044195661023 1.5820925499e-07 0.00034411010789 -0.00041522570573 -4.4421423615e-05 -0.00026181508749 -0.00097540623401 0.00060596337461 
0.00067490722049 -0.00082162958704 1.9141525016e-06 0.00041383881521 -0.00077078035366 0.00044260644572 0.00011521538061 -0.00090165597626 0.00035099794113 
-0.00022193983789 -0.00062554518726 5.3636400185e-06 0.0017563316082 -0.001430440971 -0.00077006669526 -0.00039752080478 -0.0013632501101 -0.00019850292739 
-9.4007250253e-05 -0.00065796136042 8.1218445132e-05 7.3233851565e-05 -0.00047077285804 -8.5569952734e-05 5.472008984e-05 -0.001089062681 0.00013824523288 
-8.0543541007e-05 -0.00063508659645 4.4066861353e-05 0.00096851610464 -0.0010352187393 0.00029596853742 0.0024123672581 -0.0023996337622 -0.011985570249 
0.00051313990123 -0.00093573666262 5.3920855413e-06 0.00044280701171 -0.0010723403804 -0.00016882237505 0.00035659868223 -0.00073871947125 0.00026721280059 
-7.3408600785e-05 -0.00062481543419 2.9128690741e-05 0.00093962004344 -0.00093082743177 -4.6205103903e-05 0.00052942342085 -0.0012393539408 2.741177109e-05 
-0.00021317853902 -0.00050978235986 -2.1819438668e-05 0.00070473488008 -0.0011421837992 4.5867261304e-06 0.00045081713987 -0.00089706981506 -5.3104672751e-06 
0.00036674945807 -0.00080201865117 -0.00090060223483 0.0001997518569 -0.00078571163235 -3.1143199396e-05 0.0014858850933 -0.0016501100747 -0.00010415203922 
0.00070016551706 -0.0014247069947 -0.00010229852585 2.6458546708e-05 -4.3991906811e-05 0.00073380627096 -0.00032853179199 0.00087559533793 -0.00028322712062 
-9.1942614062e-05 -8.1917063235e-05 0.00072942402434 0.0007261995826 -0.00067815214574 -0.00013260116262 8.3368913757e-05 0.00025726970235 0.00082710240857 
0.00024875348296 -0.0002498905893 0.00015964290189 -7.4833782353e-05 -8.8599162213e-05 0.0008959478561 -0.00035795616612 -0.0012163833385 1.4165253676e-05 
-0.0011024072118 -0.0014382595815 -0.00022871703349 4.7195087149e-05 -0.00032372669003 -1.2499000107e-05 0.00066763574222 -0.0010138636753 4.2955710522e-05 
1.5155350898e-05 -0.00014326100843 0.00034001632397 0.00022630476096 -0.0010922953247 0.00090347291554 -0.00024006829096 -0.0004207292883 -0.0016505962745 
0.00044422367594 -0.0010471074603 3.703269021e-05 -0.00045513701997 -0.00098103703 4.5613323329e-05 0.00080654238723 -0.00075376367171 -0.00066394215099 
0.00080845366342 -0.00069998219084 0.0010213170838 0.00054984832116 -0.00075190807535 -0.00032436494289 0.00072344540939 -0.00080751708044 -0.00048959667284 
0.00027365344266 -0.0011209285202 -1.9722744793e-05 0.00038833521213 -0.001567907287 0.00026631446406 -0.00022669967204 -0.00041602603899 0.00025210020925 
-9.7130216149e-05 -0.00050762946442 -0.000397588947 0.00045261983813 -0.0010284561778 0.00063173651076 0.00011250056952 -0.00084876612991 -0.00010586012454 
0.00083100567453 -0.00086606329156 2.5284163058e-05 0.0006973054394 -0.0009178490593 5.9427813253e-05 0.00017997185812 -0.0010263178183 0.00024048302842 
-0.00070119716416 4.8932438681e-05 0.00018757085473 0.00023482644987 -0.00052161483703 -0.00027582658127 -0.00034783863597 -0.00093014166324 4.8944136062e-05 
0.00016758297828 -0.0006605250089 0.00031285241396 0.00019818199143 -0.00050970237742 -0.00012043229757 0.00052675701441 -0.00081344289932 2.8106725258e-05 
-7.9517165331e-05 -0.00037804958807 6.2393842389e-05 -0.0012093385271 -0.0016701603907 0.0014296020235 0.00036045200685 -0.0010141929105 0.0003199195245 
0.00024461712131 -0.0011211032058 -2.3040240557e-05 5.0564262638e-05 -0.00050915138168 -0.0010574669513 -0.00024826391715 -0.0021553996729 -0.00044917253661 
0.00075826878186 -0.0018197344301 -7.5874056696e-05 0.00042882568047 -0.0013259711696 -0.00026549922851 -0.00014031737167 -0.00084972820192 -0.0001346523606 
0.00016758603943 -0.00091787666397 8.3290856658e-05 0.00015389617006 -0.00084294767385 -0.00050668336609 -6.2429093757e-05 -0.0014836097129 -0.0014878421382 
0.00035684348568 -0.0014122880886 0.00031108011633 0.00019264434983 -0.0015263956201 -0.0013323713286 0.00030391920494 -0.00099898919728 0.00020236129507 
0.00082545508979 -0.0010946961263 8.9059377065e-05 0.00054641849284 -0.0011935675587 -0.00081049473135 0.00039391561764 -0.00096983857813 7.0043500151e-06 
-0.00040471205364 -0.0012854892877 -0.0003589445169 0.00023980367323 -0.00064559785334 0.00010795068133 -0.00033941466802 -0.0015514632323 3.1381352191e-05 
9.7756149861e-05 -0.0012968799608 -6.8648997612e-05 0.0001315668831 -0.001603255289 -1.4481147407e-05 0.00041216907543 -0.00069026012368 8.8963555796e-05 
0.00055366084295 -0.0008405069503 -0.00031882049843 -0.0001694411302 -0.0013503136821 -0.00034618014209 0.00055204000355 -0.00096604439913 -0.00088108336814 
0.00075882956965 -0.00038300655513 -0.00016809566528 0.00082874271104 -0.00088498709413 -3.7874555973e-05 0.0011969278572 -0.0011850797972 -0.0017653825344 
-0.00028178005581 -0.001033271831 -9.2954462522e-05 0.00039851759457 -0.0009390068949 3.4857639198e-05 0.00095384577242 -0.0010339358415 -0.00013803529775 
0.00016386728864 -0.0016974008726 -0.00030235598724 0.0012889038124 -0.0018158820626 -4.0703494115e-05 -0.00091527973224 -0.0012154451597 0.00046762806807 
-0.00017999027748 -0.0015544085859 -3.9525069509e-05 0.00093913815332 -0.00011113148703 -0.00034593231403 0.0013679084205 -0.0009042190283 -0.00032355078282 
0.00097613862768 -0.0011693578171 -6.1664286144e-05 1.4341501077e-05 -0.0017567470338 0.00043695309956 0.00036677413735 -0.0017620055561 -0.0001073394047 
0.0037320784748 -0.0043122989282 -0.00087497898363 -5.5970369648e-05 0.00015763698319 -0.00016351519524 -0.00029222299493 0.00071372781474 0.00052412085122 
1.6375019594e-05 0.00011523472113 0.00024312010256 0.00016819548269 -0.0012722984847 -0.00027643139492 -0.00023908266674 0.00063885148794 0.00058941003719 
-0.0004311293179 -0.00066341179743 -5.8181967542e-06 0.00095468584936 -0.00048539532066 6.5803205204e-05 -0.00039106038938 -0.00011090131897 0.00099669635806 
0.00030020136439 -0.00049131443279 -0.00050052105043 -0.00018272049056 -0.00061837395035 -0.00020217866483 -0.00011430599465 -0.00067299315349 -0.0001228733073 
0.0018931760815 0.00063501442143 0.00041850437272 -0.00037572652151 -0.0004693346217 2.9335606572e-05 -0.00039204534005 -0.0013627450017 -0.00060733491198 
-7.9442135058e-05 -0.00071551083231 -0.0007033033501 -0.00019416705868 -0.0013568807897 -0.00024529973428 -0.00010412587384 -0.00045898986396 -0.0004073482049 
0.00063826197562 -0.00074651590039 0.00027493898615 0.00099948031113 -0.00060600682185 -0.00020026226719 -0.054557343578 -0.2893729771 -0.056929006486 
-9.9884648104e-06 -0.00033583070144 -0.00011532778572 0.00068720749666 -0.0013283261396 0.00019348269908 -0.00026877999992 -0.0012262482382 2.5935323817e-05 
-4.5421825087e-05 -0.00024063592997 0.00067311345974 0.00055459261076 -0.00089713750148 -0.00049061289242 0.00022903877623 -0.0016422370051 0.00066109655161 
0.00025766853403 -0.0007745958392 -2.0267498001e-05 0.00020600550137 -0.00084168303071 -3.054155492e-05 0.00011506665426 -0.00066872501265 0.00021578319892 
0.00012652133807 -0.0004919297501 0.00069836090667 0.00078747254731 -0.00075603453757 -7.3170352871e-05 0.00022796453977 -0.00069887348869 -0.00018376990443 
0.00043827515655 -0.0010633106136 0.00022634098735 0.0001776284486 -0.0018390557149 0.00056349501095 0.00072393626643 -0.0013647519649 -0.00042489822052 
-9.7402678469e-05 -0.0014065636529 0.00022157987819 0.00025062772702 -0.00072070870413 -0.00020562975999 0.00027164061228 -0.00080734104339 0.00010347081306 
0.00036696843985 -0.00091233300014 0.00028979199528 0.00063819064859 -0.0011155940305 -7.2707103264e-05 0.00085282434038 -0.0015833296969 -1.6639944499e-05 
-0.0006253206748 -0.0012819496364 -0.00044560756356 0.00012218655984 -0.001728935481 0.00064430750232 0.00034460358637 -0.001230290934 -0.00024313697398 
0.00051575496251 -0.0011128201237 2.9040779878e-05 0.00030044826436 -6.8195665451e-05 0.00013434822613 -8.6774230245e-05 -0.0011094955117 -3.1516693244e-05 
0.00090068970159 -0.0011640183405 -0.0011228465624 0.0002580987581 -0.0015502138694 1.7628642612e-05 3.6853093708e-05 -0.001380679113 0.00029524654637 
0.00098186646591 -0.00096532415913 0.00028428600656 0.00086791210264 -0.00098318245217 -0.0005409488725 -1.1997005911e-05 -0.001756838743 -0.00088478527688 
0.00026410666902 -0.0011639987369 0.00019399574016 0.0005603270741 -0.0011437435652 0.00018072014002 0.001236124592 -0.0012824809035 1.6565834275e-05 
-0.00012066988482 -0.0009516439834 0.00024396741875 -4.0935901117e-05 -0.00166451377 0.001060943622 -0.00084265021174 -0.002854335037 7.5956619112e-05 
1.9543516193e-05 -0.001030921277 -1.2255532478e-05 1.2218263058e-06 -0.0014461118754 -0.00031676474045 4.0723742374e-05 -0.0014761811042 -2.7943758817e-06 
0.0005612191353 -0.0017699179717 -5.364698537e-05 0.00052409944215 -0.0015369691442 6.948201079e-05 0.00050567074114 -0.0011130540372 4.6693135211e-05 
0.00041460310834 -0.00093195268015 5.9396036203e-05 0.00084729355021 -0.00084826309649 0.00018471226543 0.00058504679062 -0.00098439817039 -7.2120187498e-05 
8.9559652332e-05 -0.0015530309885 -9.3657513437e-05 0.0011358120001 -0.00094713622195 -0.00065870517578 -7.5436134324e-06 -0.0014640260568 -6.5937667257e-05 
0.0019849912078 -0.0022608123205 -0.0034619844821 -0.00050607906348 -0.0018934249106 -0.00067304620981 0.00043032831906 -0.0009876578407 5.3473731304e-05 
-0.00012837158499 -0.0013618903507 0.00021769669145 0.00025114612328 -0.0009779483836 -0.00012239965931 0.00024298137088 -0.001227869982 0.0001328857386 
2.2457134383e-05 -0.0017178845469 2.2199710055e-05 6.6328039229e-05 -0.0015544280847 3.1341210927e-05 0.00029918951824 -0.0016431093098 -0.00025593463241 
-4.716207129e-05 -0.0010863155405 -7.6588203442e-05 0.00042547731757 -0.00084386611786 -1.9133215512e-05 0.00014797943212 -0.0011198295991 0.0011234091376 
0.00043442595616 0.00038665362575 9.5453466097e-05 -0.00054199265385 -0.00025800554788 0.00026846410803 -0.0002599852671 0.00076462983514 0.00064466023763 
-0.00022472213725 -0.00085287720729 0.00098951042107 0.00065734487988 -0.0015880764619 -1.273296474e-05 0.00099157903413 -0.00012407800949 0.0015495576249 
0.00030687748786 -0.00021800129828 0.0013128858348 0.00014948889444 -0.00063567230674 -0.00050180827119 0.00078725099973 0.0010053332053 -0.0012386301482 
-0.00036957093027 0.00055126390601 -0.00019657324363 -0.00025284446152 0.00051167516539 -0.0015354444441 0.00028254959271 -0.00056082704037 -3.5351182353e-05 
-0.00015415806578 -0.00048052189892 -0.00078864088624 -9.7169755614e-06 -0.00095993916742 -0.00027214004437 0.00098376537292 -0.0010468645983 0.00024688463221 
0.00010302079496 -0.00013933260301 -1.7218026356e-05 0.0010407611523 -0.00023001135112 -0.00051679175386 -3.2792030096e-05 0.00016974751919 0.00036422072876 
0.00080960079833 -0.00097475419033 -0.00029686450117 0.0004789633615 -0.00061817326039 2.8893875508e-05 0.00018604448891 -0.00025766719428 0.0004892177916 
-4.4022677008e-05 0.00032051293313 0.00044772992056 0.00019775726903 -0.00053469670082 6.7029635085e-05 0.00014551704838 -0.0010562869511 -0.00012801253501 
-0.00010946266794 0.00054770100021 -4.6577268324e-05 6.9185705684e-06 -0.00074445716154 0.0012292479451 -0.00055679670169 -0.00028932522404 0.00015736769104 
-0.0002272442125 -0.0014259388703 0.00027810329634 0.00034515101321 -0.00088648921826 0.0010972932733 0.0015449984414 -0.00087801818208 0.001101634052 
0.00072315939414 -0.00057603435297 -6.2724271407e-06 0.00048695192984 -0.00012502917725 0.00015027564718 -0.00037083355429 -0.0013366610519 -0.00021591442645 
0.00052593599848 -0.00010254417311 -0.00067637883119 0.00038911006767 -0.00031064120121 3.1402163512e-07 0.00038194584738 -0.0013247208503 2.3222928222e-05 
-0.00047058268867 -0.00089322552215 0.00019477414372 0.00066030354767 -0.0013097994979 0.00056692086084 0.00024158469977 -0.00048352867479 0.00099207353017 
0.00012540764732 -0.0005540313801 2.1489264281e-05 0.00025786212226 -0.00050479517404 -0.00044284847561 0.00018691739161 -0.00095624562223 2.971629726e-06 
-0.00024752766739 -0.00033678795671 -0.00070031725982 0.00039098678539 -0.0014704757204 0.0004681149063 -0.00041471206966 -0.0013660810961 0.0001364560394 
4.7980649666e-05 -0.0018699772607 0.00025360830624 -0.00048288611576 -0.0014750193267 2.0066747024e-05 7.2101329122e-05 -0.0020784817688 -0.00012765371281 
0.00054792777292 -0.0014488800822 -6.416071742e-05 0.00083165073768 -0.0018572309186 0.00068062095136 0.00060642920142 -0.0011737743743 0.00073335803432 
0.0004101655399 -0.00081858065013 -6.1564967446e-06 -8.2025948923e-05 -0.00085146751457 3.6165405586e-05 0.0021758323637 -0.0032991351523 3.7883415122e-05 
0.00014292252549 -0.001105169564 -0.00043994552898 0.00092918716791 -0.0016244606406 -0.00022183380085 0.00030280683034 -0.00068041266234 -0.0003553444925 
-0.00048015346294 -0.0015235042876 -6.2364983517e-05 -0.00058307911507 -0.0020030561827 0.00093271978066 0.00026167317111 -0.0010585263099 -0.00038418398549 
-6.8972385791e-05 -0.00094886747175 0.00020977881825 0.00033598632702 -0.00069043129806 7.1947039072e-06 -6.2405074664e-05 -0.0015421318536 4.5071344035e-05 
0.00032754937511 -0.0014062016232 -8.8684628027e-05 0.00047389300221 -0.002125893804 0.00022500401505 -7.1675811183e-05 -0.002066239466 7.8447054598e-05 
8.1873139507e-05 -0.0010721114208 3.5992262412e-05 -0.00073330656605 -0.0011361863131 -0.00033655754661 0.00073250978013 -0.00181953757 -0.0001122522372 
0.00036647438712 -0.0011339501389 1.576258989e-05 0.00058384572638 -0.0015201692614 0.00014212208071 0.00028069118827 -0.00095974804635 -0.00012525772366 
5.6452887997e-05 -0.0011464952957 0.00037958607847 -1.9644792985e-05 -0.0016731263917 3.4569696002e-07 0.00031280228461 -0.0015012827563 -0.00019144292182 
-0.00018960214305 -0.0018285478423 -0.00017692834499 0.0003037831797 -0.0011752198025 -4.5137826363e-05 1.6625343673e-05 -0.0021227294208 -0.00027991205454 
-2.0863061694e-05 -0.0015062256671 -8.7408421689e-06 0.00055107277327 -0.0009591333544 -3.4774550543e-05 0.00060843860086 -0.0011528095275 0.00032304677218 
0.00021196553559 -0.0010927507149 0.00022912779223 0.0001500392684 -0.0011278887597 -0.00041917765258 0.00017229944458 -0.0011561703032 2.8685696251e-05 