# vtk DataFile Version 4.1
vtk output
ASCII
DATASET UNSTRUCTURED_GRID
POINTS 1274 float
0.512806 0.554291 0.0379525 0.469464 0.651319 0.10535 0.487732 0.59835 0.268458 
0.494704 0.587675 0.0989981 0.423597 0.756139 0.0323153 0.424335 0.768743 0.119486 
0.475461 0.63768 0.212928 0.459471 0.670323 0.268649 0.39382 0.845371 0.0588765 
0.398306 0.812993 0.164654 0.445731 0.699771 0.215045 0.432632 0.739241 0.265757 
0.362774 0.902945 0.0319698 0.343534 0.968735 0.0518905 0.381185 0.878751 0.146412 
0.394724 0.844596 0.231925 0.345212 0.957879 0.26006 0.31381 1.03958 0.0387198 
0.390398 0.914066 0.0866206 0.447608 0.899302 0.110137 0.332101 0.996524 0.129989 
0.408738 0.915375 0.218491 0.310278 1.03807 0.265121 0.351888 0.929783 0.187744 
0.281374 1.10242 0.0483874 0.32792 0.987948 0.200697 0.286463 1.10858 0.260298 
0.257571 1.16288 0.0336643 0.357024 1.11596 0.10425 0.301754 1.06921 0.109399 
0.289754 1.25223 0.0382189 0.30277 1.04561 0.200304 0.283454 1.10077 0.17241 
0.333149 1.2557 0.0926141 0.384778 1.15809 0.0375363 0.27548 1.14863 0.110261 
0.421488 1.15013 0.106479 0.260608 1.15074 0.208595 0.339999 1.10724 0.211327 
0.218614 1.25631 0.0332148 0.319843 1.18632 0.0542485 0.319485 1.15701 0.173663 
0.24466 1.19923 0.164559 0.287471 1.18329 0.26484 0.238975 1.22236 0.0937469 
0.371846 1.23197 0.0356631 0.236467 1.23043 0.236448 0.215629 1.25688 0.149721 
0.541161 0.470108 0.0302093 0.611622 0.295439 0.0943279 0.595528 0.35876 0.121514 
0.596851 0.347767 0.197744 0.576072 0.388917 0.266501 0.610128 0.314308 0.261952 
0.540751 0.46988 0.20976 0.508604 0.558094 0.219044 0.603394 0.3289 0.0358989 
0.566619 0.417649 0.159264 0.483864 0.624387 0.0382226 0.60979 0.475643 0.0478441 
0.545942 0.47508 0.0985067 0.549525 0.448247 0.268474 0.565149 0.571996 0.262771 
0.527401 0.512496 0.15956 0.550662 0.668967 0.0308603 0.445309 0.711666 0.0786282 
0.517461 0.698029 0.10646 0.471423 0.753796 0.178202 0.551139 0.548226 0.101344 
0.523072 0.658813 0.266702 0.446203 0.697289 0.146022 0.414799 0.777941 0.214412 
0.500981 0.681276 0.170031 0.554398 0.577499 0.16846 0.494086 0.780566 0.0921069 
0.535405 0.760883 0.146338 0.458753 0.815003 0.0363746 0.508353 0.724788 0.0397543 
0.484353 0.818241 0.150732 0.436712 0.836043 0.11302 0.364408 0.894509 0.269731 
0.499271 0.769716 0.260788 0.538605 0.617813 0.219233 0.563273 0.748037 0.220246 
0.467738 0.816011 0.21357 0.506653 0.706338 0.226591 0.459816 0.889703 0.0400405 
0.520356 0.854109 0.035406 0.535638 0.791436 0.0326235 0.453946 0.876081 0.177685 
0.495154 0.850314 0.0953109 0.464759 0.870475 0.260663 0.438629 0.804123 0.269008 
0.416881 0.952102 0.0373624 0.373494 1.08984 0.0325879 0.465913 1.00496 0.0331272 
0.400431 0.997087 0.0949545 0.415574 0.948443 0.150816 0.468226 0.964613 0.0913097 
0.485392 0.941292 0.262373 0.419622 0.972876 0.26148 0.535017 0.98362 0.2689 
0.46008 0.952302 0.203236 0.38367 1.02477 0.0323971 0.36542 1.05495 0.0849243 
0.463456 1.03252 0.0902832 0.362729 1.06336 0.158373 0.395402 1.00499 0.196854 
0.441643 1.05137 0.264238 0.377068 1.02943 0.267487 0.483238 1.00381 0.236339 
0.456914 1.13648 0.0385418 0.470488 1.08346 0.123139 0.427288 1.04234 0.13895 
0.360988 1.09069 0.269156 0.526468 1.17881 0.175432 0.489772 1.10262 0.267771 
0.407799 1.08858 0.213299 0.429637 1.13394 0.264219 0.445392 1.12069 0.166851 
0.358915 1.16081 0.260112 0.511065 1.18728 0.0383847 0.49859 1.14714 0.119844 
0.436782 1.20626 0.0341932 0.369698 1.20189 0.101044 0.381154 1.13365 0.166281 
0.338877 1.23715 0.260951 0.453286 1.16791 0.207751 0.402487 1.20682 0.221275 
0.469276 1.19119 0.266121 0.487409 1.25523 0.0362705 0.312532 1.21265 0.137355 
0.460294 1.24933 0.225754 0.300306 1.21314 0.204011 0.474636 1.21225 0.169799 
0.37316 1.22907 0.163508 0.639543 0.231627 0.179445 0.56412 0.412805 0.0315989 
0.660034 0.192941 0.0567296 0.661016 0.287605 0.213221 0.640203 0.241026 0.263511 
0.668921 0.174508 0.207248 0.642636 0.223667 0.115589 0.631509 0.405924 0.0363479 
0.59217 0.422939 0.0894224 0.526989 0.509878 0.265847 0.605613 0.486851 0.262914 
0.617345 0.291197 0.159143 0.639313 0.377434 0.246222 0.613716 0.460237 0.136322 
0.587898 0.546706 0.0375206 0.660531 0.423516 0.101512 0.534189 0.636208 0.131776 
0.604795 0.528688 0.146778 0.575876 0.524458 0.211813 0.592651 0.433438 0.220459 
0.613567 0.623721 0.266298 0.603679 0.717995 0.0390307 0.5553 0.610151 0.0646661 
0.569578 0.733927 0.0987829 0.566534 0.697855 0.157781 0.59993 0.70999 0.268228 
0.591689 0.634284 0.174661 0.64439 0.640272 0.211173 0.571937 0.672011 0.224521 
0.59717 0.758519 0.159944 0.587104 0.666329 0.0958932 0.639196 0.787518 0.0390306 
0.561722 0.796542 0.0909213 0.541356 0.81396 0.189925 0.545306 0.831911 0.261832 
0.616243 0.774422 0.265252 0.515537 0.872963 0.211019 0.625455 0.708706 0.201254 
0.600477 0.821045 0.22151 0.584919 0.837327 0.0348584 0.560881 0.859985 0.092906 
0.565996 0.909174 0.0397005 0.503989 0.943303 0.0315442 0.552118 0.909329 0.260437 
0.598319 0.966925 0.265548 0.528556 0.862632 0.146387 0.505781 0.923121 0.171807 
0.535529 1.00283 0.0512025 0.522796 0.915913 0.105657 0.473276 1.05894 0.18982 
0.468782 0.995428 0.155013 0.537515 0.988445 0.137703 0.518118 1.04644 0.269178 
0.570616 0.94436 0.192196 0.436527 1.06616 0.0347801 0.538685 1.12393 0.0335695 
0.573097 1.0643 0.0351738 0.504127 1.0644 0.0328709 0.552236 1.10749 0.0955464 
0.522964 1.04993 0.104463 0.542751 1.00817 0.209074 0.503084 1.12521 0.204842 
0.538737 1.23369 0.089268 0.574352 1.21139 0.032288 0.563959 1.17635 0.123023 
0.522898 1.09066 0.152855 0.604926 1.08684 0.268671 0.540287 1.23753 0.159333 
0.534068 1.21114 0.237555 0.567026 1.12952 0.180065 0.557002 1.0727 0.214636 
0.553607 1.13629 0.259467 0.639978 1.20709 0.0428297 0.622167 1.20924 0.110226 
0.464995 1.21443 0.100759 0.647685 1.23547 0.221498 0.595673 1.19818 0.186289 
0.773275 1.16725 0.205865 0.678956 0.130949 0.0401799 0.693136 0.119927 0.11344 
0.721562 0.0322011 0.19295 0.682131 0.133972 0.265512 0.69772 0.0948052 0.18216 
0.636825 0.262222 0.0387357 0.695993 0.31544 0.0396674 0.702146 0.225411 0.15053 
0.704475 0.266217 0.267353 0.640165 0.405945 0.173907 0.695353 0.199673 0.267447 
0.678709 0.326943 0.266687 0.66308 0.336139 0.137893 0.679685 0.458017 0.0414291 
0.65845 0.494698 0.0970767 0.651802 0.356161 0.077629 0.685849 0.466534 0.157955 
0.649937 0.461029 0.216905 0.681949 0.278451 0.104418 0.729227 0.411966 0.197715 
0.690722 0.353778 0.201346 0.611778 0.644339 0.0351633 0.661357 0.524931 0.0349336 
0.635557 0.55809 0.0891244 0.595457 0.599857 0.119945 0.648113 0.606512 0.156702 
0.663943 0.683233 0.262133 0.63858 0.545663 0.269081 0.687267 0.581893 0.207283 
0.617199 0.578137 0.209085 0.67347 0.546368 0.150148 0.678059 0.515694 0.206306 
0.629281 0.714664 0.122643 0.658372 0.653858 0.0921056 0.697435 0.57245 0.0975396 
0.708868 0.626627 0.139791 0.717157 0.646932 0.20661 0.661395 0.8225 0.268701 
0.665516 0.671569 0.159973 0.624276 0.802089 0.116983 0.64785 0.875759 0.0391008 
0.689514 0.760827 0.0794128 0.708297 0.70158 0.0856868 0.680599 0.762461 0.148996 
0.637493 0.774911 0.203121 0.696982 0.71547 0.205033 0.613609 0.867377 0.265677 
0.582714 0.871468 0.182464 0.61498 0.968474 0.0372508 0.668591 0.984073 0.076516 
0.63078 0.868166 0.106352 0.644012 0.926465 0.0883982 0.587047 0.90723 0.125312 
0.610038 0.966575 0.138925 0.634978 0.983941 0.209856 0.677784 0.848282 0.147887 
0.635583 0.921821 0.233675 0.643505 0.863952 0.207643 0.632631 0.915632 0.169061 
0.630725 1.10732 0.0300645 0.642034 1.03905 0.0396457 0.694478 1.09149 0.0358782 
0.574856 0.955977 0.090694 0.594654 1.02021 0.0955683 0.667597 1.04188 0.115575 
0.578134 1.03004 0.260401 0.614076 1.02451 0.161837 0.672324 1.03047 0.183925 
0.616473 1.08902 0.0908922 0.622756 1.14267 0.138276 0.696919 1.1644 0.0370849 
0.595365 1.15316 0.0646892 0.582199 1.07673 0.146279 0.624087 1.05541 0.21699 
0.741462 1.13119 0.08349 0.636364 1.1322 0.223617 0.661192 1.0916 0.167667 
0.603604 1.19461 0.26361 0.749372 1.21159 0.033559 0.791393 1.18093 0.101165 
0.68988 1.16892 0.106136 0.673319 1.19784 0.168501 0.677304 1.18666 0.260968 
0.721744 0.0829755 0.0341641 0.753628 0.121576 0.0766514 0.717965 0.0495631 0.118875 
0.783928 0.0581384 0.126287 0.723514 0.0413246 0.26252 0.735468 0.105041 0.243168 
0.707645 0.241771 0.0350575 0.750733 0.181455 0.0391981 0.768353 0.265921 0.0304512 
0.736445 0.178536 0.110544 0.727522 0.15649 0.172519 0.756196 0.16704 0.263418 
0.773927 0.229738 0.155051 0.769758 0.242465 0.262632 0.731771 0.20942 0.212751 
0.703285 0.391082 0.0363929 0.765526 0.327713 0.0314116 0.720739 0.333348 0.1034 
0.747488 0.251653 0.0925361 0.733201 0.41818 0.0925557 0.76472 0.373618 0.12747 
0.703802 0.387154 0.141011 0.748129 0.319747 0.263464 0.733863 0.281264 0.197175 
0.697097 0.420375 0.260498 0.726347 0.512755 0.0874012 0.75197 0.463464 0.0378119 
0.796896 0.483822 0.0865203 0.75514 0.468761 0.135545 0.790366 0.419037 0.17067 
0.675392 0.493016 0.266646 0.804216 0.511768 0.26417 0.773289 0.399766 0.260577 
0.741216 0.480763 0.246199 0.718347 0.547846 0.263651 0.669987 0.598362 0.0391232 
0.693873 0.664419 0.0315313 0.737605 0.532415 0.175949 0.761532 0.580525 0.121974 
0.679023 0.613197 0.267401 0.753003 0.585199 0.216473 0.743587 0.621599 0.267491 
0.673487 0.723927 0.0320117 0.747794 0.747702 0.111948 0.758088 0.691364 0.0385107 
0.728027 0.754637 0.0312106 0.748124 0.655085 0.0971891 0.740257 0.692631 0.261124 
0.688419 0.815925 0.208831 0.72733 0.691415 0.147058 0.751725 0.744469 0.178757 
0.694387 0.74396 0.269539 0.702125 0.933275 0.0399806 0.717598 0.852318 0.0346095 
0.681665 0.82397 0.084383 0.694257 0.887221 0.095265 0.739933 0.809296 0.159478 
0.738306 0.837251 0.260085 0.733452 0.774227 0.229845 0.681202 0.885131 0.265523 
0.712548 0.876978 0.207362 0.688099 0.950247 0.268913 0.717746 1.01949 0.0398207 
0.725754 1.06799 0.0895397 0.728216 0.951093 0.107492 0.689487 0.945988 0.205799 
0.672077 0.975126 0.138873 0.692905 0.917387 0.150285 0.730926 1.00827 0.155013 
[...]
POINT_DATA 1274
FIELD FieldData 10
VELOCITY 3 1274 double
0.00074124766865 -0.0014365153014 -0.00010204111213 -4.2092456722e-05 -0.00082173671817 -0.00058290587467 0.00043448048949 -0.0011259473725 1.1248186192e-06 
0.00034905260925 -0.0011574654851 0.00045582040986 0.00015388089863 -0.00072688651041 -0.00011704884594 0.00036283090706 -0.00065937508273 0.00079960317208 
0.00028059659179 -0.00084768939521 -0.00050661573936 -0.00058889022835 -0.0012074867355 -1.3073237967e-05 0.00059074524795 -0.0014285212179 -0.00011061819367 
0.00026147110193 -0.00051264390358 0.00050873714467 0.00054675109566 -0.001012717208 -0.00015354870512 0.00048319252245 -0.0012383112808 2.2779308715e-05 
0.00057758049901 -0.0013989429081 -4.9171972477e-06 0.00057949507614 -0.0013643888367 0.00022448667442 0.00022922082567 -0.00069746603362 -4.2807039901e-05 
0.00042769725944 -0.0009331358585 -0.00010489560509 0.00041248340124 -0.00099994837411 -2.6107228278e-05 0.00054552942518 -0.0013459976622 3.4812109117e-05 
0.00066822234873 -0.001011047374 -0.00014411050778 0.00055911373493 -0.00067750794797 -0.00012013138128 0.00041982550167 -0.0010385269178 -2.199923192e-05 
0.00017296693295 -0.0009882803032 0.00022929457032 0.00025600763149 -0.00061311258527 -0.00017842189038 0.00028101649986 -0.00069138965797 -0.00010683189442 
0.00056610907018 -0.0013724202461 0.00018806485223 0.00036295185849 -0.00074102573968 0.00014361157965 0.00023838098578 -0.0006278555415 2.196581837e-05 
0.00053789063966 -0.0012971233035 1.1937650309e-05 0.0005248649719 -0.0010638871178 -0.00073192925611 0.00032407555804 -0.00071351939015 -0.00063916141566 
-1.8940738569e-06 -0.0013454843935 1.3773644641e-05 0.0002703529114 -0.00078428654098 -7.0914586745e-05 0.00035308234481 -0.00080841233189 -0.00019646606518 
0.00033710226284 -0.0011061058575 -0.00031023069185 0.00082438096363 -0.00091055715728 0.00015313011643 0.00029148227012 -0.00074272177951 -0.00025383164476 
0.00045156262457 -0.00095431480441 -0.0001398820217 0.00034748211514 -0.00082583759545 -0.00020336278504 0.00019918090594 -0.00091013449484 -6.3950448678e-05 
8.5546330134e-05 -0.00019441975076 5.0600253218e-06 0.00061903319369 -0.0011327704504 -0.000348453239 5.7145608636e-05 -0.00096170114453 -0.00010393855087 
0.0003542660412 -0.00081853912927 -0.00019520401612 -7.453564934e-05 -0.00064061595238 -1.666503125e-05 0.00031410637898 -0.00075295528061 -0.00040523840708 
0.00073257809762 -0.0011738572457 -1.2642189369e-05 0.00017547163518 -0.00042383644114 -0.00011319882898 0.00035490626735 -0.00085957739107 -0.00032273682582 
-0.00024267790199 0.00041475852442 -1.693872554e-05 0.0011280504082 -0.00028200990371 0.00029647497143 -0.00023403121936 -0.00029341279901 0.00020149075002 
0.00038198192294 -0.00052119443905 0.00052892140842 -0.00026510801311 -0.0022311492851 -0.0014643220342 0.00020589296353 -0.00052800602845 0.00040827324198 
-3.5661374291e-05 -0.00028208730126 0.00022097858421 0.00059492040221 -0.00073474988784 -0.00032013784578 0.00012447584167 -0.00026205025447 -2.8501670772e-07 
0.00034673872138 -0.00038284032317 -0.00020984788083 0.00063379472907 -0.0015564729421 -0.0013430167361 -0.00042922098691 -0.0012483469747 -0.0008476631047 
-0.00021321688415 -0.00078918937217 0.00027754674368 0.00073460725015 3.5864282531e-05 0.00023069161945 0.00011059177628 -0.00062183099017 4.0943571681e-05 
-0.00021166161115 -0.00019662826617 -0.0003764230181 0.00026254610744 -0.0010992640816 -0.000341041662 4.3356694743e-05 9.6135992499e-05 0.00044604844046 
5.8409092559e-05 -0.00044449203816 0.00043431174419 0.00044377868638 -0.00088452179679 -7.5336415087e-05 0.00058703137735 -0.00044885550507 0.00015062585341 
-0.00055862504607 -0.0012116949657 -8.706941748e-05 0.00022025290144 -0.0004739086078 -0.00040058874904 0.00024146124157 -0.0009601991255 0.00011144191452 
3.4285772048e-05 -0.0010041307385 -0.00042228799057 0.0011821903259 -0.00022872500512 2.4083542304e-05 6.7878251554e-05 -0.0010310539652 1.1060784802e-05 
0.00086619287258 -0.0015388290783 0.00089401853244 0.00084432879317 -0.00097792749165 5.4844748217e-06 0.00035867659418 -0.0010421587112 0.0002424750527 
0.0005219540354 -0.00087460235731 0.00033652370258 0.00057934114808 -0.00062399058928 2.8029078363e-06 0.00037218822226 -0.0010446025667 2.109266216e-05 
0.00022480848712 -0.00070963105606 -0.00025079259037 0.00017538540136 -0.00037894485824 -0.00025933561869 0.00066428726119 -0.0014536601976 0.00018979124427 
0.00049220950266 -0.0011345864282 0.00034479385072 0.00048526519473 -0.00091180985004 -0.0001057492263 0.00031230130294 -0.00092677484245 -1.4108717472e-05 
0.00022042297283 -0.00099538201562 -0.00042245726728 0.00013632261567 -0.0010212340182 -0.00011730644509 5.3369819209e-05 -0.00091760808818 -4.3597436324e-05 
0.00057589147979 -0.0011144714396 -0.00039781555201 -0.00057680686883 -0.00082283978798 -2.5016467273e-05 0.00016003859651 -0.0011946241987 7.9625340605e-05 
0.00058404108804 -0.00080492623272 -6.1192662443e-05 0.00026429721922 -0.0008147797707 4.5525553608e-05 8.0797371285e-05 -0.0010813440993 3.878982446e-05 
0.00033831190426 -0.0011380973175 0.00031581881117 0.0007163158985 -0.00090409914198 0.00037082590585 0.00065207970479 -0.00060388956243 0.00037892230533 
8.3203509177e-05 -0.0010840441386 0.00079302133672 0.00032383695817 -0.00062194725337 -0.00014876392448 0.0002137090996 -0.0011829416504 -6.7644025407e-06 
0.00096469752545 -0.0020716231033 0.00010679803671 0.00014722036861 -0.0011148123529 7.7815082248e-05 7.7240356908e-05 -0.0013268084699 -0.00025020984326 
-6.0089128197e-05 -0.000812716305 -8.4580359207e-05 8.9624715373e-05 -0.00097727270142 6.006925016e-05 0.00029029392738 -0.00075069189854 9.3540027118e-05 
0.00034645426519 -0.00061586950674 -5.6706194691e-06 0.00019627682664 -0.00089739494794 0.00029017363136 6.3450511291e-06 -0.0011951366736 0.00035591292484 
0.00074910544018 -0.0012545361445 0.00010276397666 -0.00022582002455 -0.00075554264302 -0.00037083463086 0.00018963568747 -0.00065075015865 4.546539863e-05 
-0.00012409266374 -0.00091748075399 1.1740035392e-06 0.00069367090711 -0.00092354215506 1.1422141186e-05 3.4708835394e-05 -0.0012163351175 2.9483458581e-05 
-0.00010555811841 -0.00080874879918 0.00010113013048 0.00021414086025 -0.00081559093046 -1.6331227543e-05 1.8656915112e-05 -0.00094307766613 4.7763565118e-05 
-0.0002086474794 -0.00091567814261 -2.3820884278e-05 0.00010696344873 -0.0005657787255 -0.00021838478086 0.00030259776236 -0.0011147283335 0.00038729189809 
0.00083721615038 -0.00091982744937 6.71354056e-06 0.00054205807909 -0.00095533852392 -0.00035744727952 3.7834630733e-05 -0.00083648803765 -0.00051766771223 
-0.00020035705245 -0.00092330375723 -1.4732381903e-06 -4.8904233886e-05 -0.000976136187 0.00016593504095 0.00019830464492 -0.00084819297193 0.00052283242855 
0.00018035586155 -0.00083148994478 -1.2386583503e-05 0.00040644544019 -0.00047365912792 1.4631236886e-05 0.0003937853292 -0.00091782755841 -0.00011483302573 
0.00025542428745 -0.00084168991767 -0.00013376259144 7.268690304e-05 -0.00091588523878 -0.0001539807811 0.00043625527355 -0.0012056997968 0.0001507909318 
0.00054822738943 -0.001731908358 2.9083740538e-05 -9.339656519e-05 5.9741584702e-05 2.5386954889e-05 -5.4983811627e-05 0.00040495829888 -0.00026701143434 
-0.00020405753618 -4.6051616373e-05 0.00037703193974 -0.00065346123799 9.3311781439e-05 1.6791483323e-05 6.9141820752e-05 0.00054149795426 0.00086345196312 
-3.1250940141e-05 0.00025726562787 0.00044014247653 9.8562061937e-05 -0.00027941962162 0.00078687613249 -0.0018242409204 -0.0014104526476 0.00027356917774 
0.00060749694466 -0.0002576445988 1.4603461497e-05 -0.00041425715132 -0.00027985758629 0.00014259783667 0.00056811357655 -0.00087734386335 0.00018341035184 
-0.00035788874604 0.00052982294752 0.00021926319299 0.00016966377844 -0.00036987101646 0.00078425283433 -4.6746673664e-05 -0.00038597129169 -0.00076873132544 
0.00073011143084 -0.00076575068687 2.7965210703e-05 0.00071942113983 -0.0001738094877 -0.00058657937753 0.00047145319262 -0.00087247893274 -0.00081332116923 
0.0003652964472 -0.00092742641515 0.00089872139913 0.00057490826957 -0.00046226678637 -1.7007759462e-05 0.00025363362134 -0.00034499134687 -0.00017980889263 
4.6228368758e-05 -0.00090229184662 -6.9421942245e-05 -0.00041038515949 -0.0011859408619 -0.00017166823897 -0.0001703982162 -0.0007747535001 0.00011324271058 
0.00066817137872 -0.00058108387871 8.9763795937e-05 0.00022760822625 -0.00098360105454 0.00057483548146 0.00022889724712 -0.00087179800184 0.00011326072841 
0.00070169284714 -0.0007807844651 0.00040343720569 0.00075244071086 -0.00085058034339 0.0002139278976 -0.00033748195642 -0.00029494748172 -0.00018180973612 
-0.0013788659939 0.00031865474477 -0.00031032932751 0.00019785612625 -0.00023031246539 -0.00016624526464 -3.1390857331e-05 -0.0011035668209 8.1849289855e-06 
0.0004285623964 -0.0015443335848 -1.7895213506e-05 -0.00080682505231 -0.00057327723165 -9.882214959e-05 0.00010942035902 -0.00092139641967 -2.8396926748e-05 
-4.6130376426e-05 -0.00037827682724 3.8097339575e-05 -2.512399656e-05 -0.00076634298667 0.00043823177584 0.00030177823144 -0.00085754392294 0.0003709968818 
8.8715876306e-05 -0.0011635748758 -7.5706893642e-05 0.00036701514932 -0.00077216500188 -0.00064476676876 0.00029113847998 -0.0015975877363 -0.00021142141547 
-0.0002146475758 -0.00090219649991 5.7484709531e-05 0.00012251739031 -0.00079761386069 2.8820201956e-05 0.00020222106835 -0.00081626098241 -5.0051434411e-05 
0.00030099633742 -0.00087308897232 0.00011819623525 0.00030139127042 -0.0008423673595 -0.00024566897569 0.00064837834101 -0.0016283818601 -0.00078718739868 
0.00055933864743 -0.0010494029311 5.9564496837e-05 0.00031638663358 -0.0013356948173 -0.0010000287877 6.4473432766e-05 -0.0010422212182 0.0005773692575 
0.00028379187045 -0.00073533637674 -8.8781959927e-05 0.00040022686465 -0.00069020002683 -1.0597406193e-05 0.00029179876703 -0.0010767100391 -1.5750482201e-05 
0.00011435862999 -0.000669472429 9.5249907616e-05 0.00019640132973 -0.0010623457789 -0.00015734984731 9.0869480437e-05 -0.00053829917223 6.9049310743e-06 
0.00030983292546 -0.0009169382551 2.3081608783e-05 0.00011842643154 -0.001275813406 1.3999877632e-05 0.0002328525793 -0.00094923173539 -0.00036254684966 
-9.8692128947e-05 -0.00092771122715 -0.00033582101851 -8.1541603089e-05 -0.00099035177926 6.9430807783e-05 -6.9257795097e-05 -0.00082030404926 -3.6894404652e-05 
0.00044665102061 -0.00081872311023 -0.0001127459651 0.00038064443631 -0.0012694736534 -9.1930209878e-06 0.00030704529029 -0.0009691320818 -0.0003218914504 
-0.00023109073151 -0.0013852902767 -9.3141884979e-06 0.00035369545137 -0.00084846219785 5.4370546213e-05 0.00014014493878 -0.00094022938921 -0.000109913925 
4.4768244407e-05 -0.00090952120478 -2.1053326771e-05 6.2844994869e-05 -0.0015241397953 -0.00068834514069 -7.6223306123e-05 -0.00099609200581 0.00014336153499 
1.1035420031e-05 -0.0011811087207 -3.2249589406e-05 0.00040794901408 -0.0011341103053 -9.056836081e-05 0.00024240782383 -0.00084404957317 -0.00019215062746 
0.00053450375793 -0.00097843477955 0.00014796025991 -0.00022538586327 -0.0015033754375 6.1665432521e-05 -0.00027033355952 -0.0014259441657 7.452567394e-05 
-2.8464889936e-05 -0.0015605263539 8.5800002938e-05 -6.3725378458e-05 0.00011400548921 -0.00040669156445 4.1431013679e-05 -3.9480636267e-05 0.00038003096409 
5.4282616273e-06 3.0541215166e-05 0.0009821773834 0.000127170704 -0.00082159992303 -0.00027108368132 -2.7883390803e-05 7.6809206502e-05 0.00076468390488 
-0.00044458065857 -0.0004725161712 -7.8987128192e-05 -4.5316743205e-05 -0.00040127348829 -0.00046178868849 -0.00024012204695 0.00088034822014 0.00046771103006 
0.00029785451057 -0.00045724299343 -0.00049359531292 -0.00023973194721 -0.00053843537265 -0.00071092103063 -0.00019913658682 -0.0006133426006 -9.3189710948e-05 
0.00089006559753 -0.00025039720836 0.00011844404668 -0.00032896108836 -0.00071649541137 0.00049318913348 -0.00092864904131 -0.00045574420043 -0.00045140544372 
-0.0014083105369 -0.00073309285596 -0.00013621481559 0.00041485916844 -0.0012710104611 -4.4398589112e-06 -0.00042691963261 -0.00072904796182 -0.00045251794431 
0.00048234887234 -0.00068748315801 7.5727310612e-05 0.00085801494643 -9.1495600823e-06 -5.5839731646e-06 0.00018148909944 0.00027415086045 0.00011791882192 
0.00040620034688 0.0018918835353 0.0010006359293 0.00051690895171 -0.00087148663147 0.00028894434848 -0.0019172186901 -0.00073604670358 -0.00016477272365 
0.00043963244615 3.4521395319e-05 0.00031574432931 0.00025277642188 -1.0162101775e-05 -0.00018126214465 0.00042308269425 -0.0013973983507 0.00017746435296 
0.00053643599105 -0.00071993187094 8.32812101e-05 0.00091511913499 -0.0010215593576 2.0125792756e-06 0.00062343319932 -0.00076853086401 0.00012201057427 
0.00062256102131 -0.00069131562795 0.00063248313272 0.0005476274035 -0.00025378877272 -7.3266549849e-06 0.0013937152162 -0.00043631628447 0.00028218609203 
0.00094436074326 -0.00092613046694 -2.4117669623e-05 0.00029422128881 -0.0015289313274 0.00087489526796 0.00039400403118 -0.0015622182373 -0.00042738941605 
0.00026770527065 -0.00094652380613 0.0010176306882 -0.0001380493356 -0.0003720404908 -9.9351853164e-05 0.00087375383781 -0.0014710029579 -0.00050931190008 
0.00055587567684 -0.00048545090502 0.00055690097655 0.00058230921347 -0.0011510082681 0.00037576509453 0.00035985230309 -0.0010787050285 -1.1405514291e-05 
5.7200072425e-05 -0.0015581306177 -1.8294969314e-05 -0.00011767360259 -0.0011597799201 0.00071477475325 0.00013649860885 -9.5963864917e-05 -0.00014109456271 
0.00060459958461 -0.0017767871324 0.00019856139657 0.00026243097768 -0.00038785017348 9.1784603545e-05 0.0006565258454 -0.0014375227823 -1.5149336257e-06 
-0.00036533212794 -0.00086425197662 0.00063814524554 0.00011498380154 -0.00099525142008 6.3585392908e-05 -3.9722241459e-05 -0.00073768246838 -0.00019909674899 
0.00046757078537 -0.00091393889588 -8.8674821991e-06 0.00035647060046 -0.00088974961957 -0.00022884565948 0.00034017122452 -0.001173390869 -0.00052413841023 
0.00045437397164 -0.0012884699863 5.5315330651e-05 0.00053121961013 -0.00096088367224 6.4976539851e-05 0.00080570503729 -0.0012495627685 -9.3865460853e-05 
0.00016103520974 -0.00098189690159 -0.00022051029589 -6.0053932108e-05 -0.001858720576 -0.00031481715505 -0.00017623901486 -0.0012703354197 8.7788836883e-05 
0.00056952022856 -0.00044352479373 -3.2693110258e-05 0.00024960765874 -0.00097336019917 -0.00036914636988 0.00031271524697 -0.00099657794014 -2.7424112184e-06 
0.00018961836483 -0.00079934237878 -9.9016343422e-05 0.00062673414867 -0.00097968647383 -4.9978950188e-05 0.00022684748863 -0.00069239499053 -8.0279698019e-05 
0.00036218885544 -0.00087992045142 -7.9876423513e-05 4.778893733e-05 -0.0010500165114 0.00010513573867 7.4673580334e-05 -0.0011580582973 -0.00028774589161 
0.00017104907442 -0.00083323168758 -0.00028802710712 0.00041176293357 -0.00084104548297 -0.000361913517 0.00053362442379 -0.00098574461483 -1.6700504397e-05 
0.00010579315681 -0.00066542101193 0.00015021296565 -0.00043669310749 -0.0015934035795 -0.00080219628382 0.00025344692883 -0.00090295432401 -1.1969311911e-06 
0.00057925001681 -0.0011638930864 -0.00012440518548 0.00044817555905 -0.00091639967321 -3.7866655134e-06 3.1781270994e-05 -0.00095122261793 -0.00019523185914 
4.0757101313e-05 -0.0012090296956 1.0298402875e-05 0.00078836167146 -0.0012680103869 2.1728967979e-05 0.00073215253704 -0.0015735671735 0.00046421009877 
0.00076882812611 -0.0008235879385 9.9262243723e-06 -0.00024256296032 -0.0013817679462 -1.140089298e-05 -5.6121620901e-05 -0.00092333009904 0.00058600738227 
0.00031242944247 0.00040188994869 -4.7104276664e-06 0.00052230812643 -0.00070529375345 0.00050745363316 7.8739997679e-05 -0.00024029879033 0.0010204201219 
-0.00021008745011 -0.00099072008069 0.0010757994618 0.00021609133213 -0.00047675957918 -6.2478682705e-05 0.00077669617339 0.00038572373885 0.00064352417597 
0.00061187169389 -0.00010087556805 0.0017873035552 -0.00056454143797 -0.00072500926217 -0.00057536232535 0.00026334317313 0.0014307459592 -0.0010069549862 
-7.2463814252e-05 -0.00021916061275 0.0010546582041 -0.00062490587162 0.0002624746457 -0.00080381919188 0.00025665461409 -0.00029054996962 -3.3706194198e-05 
-0.0003511618537 -0.0010176168814 -0.00065154957561 9.9633620222e-06 -0.0013636925392 0.00094878231508 3.8345720948e-05 -0.00030874302006 8.8285447141e-06 
0.00074201988055 -0.00015363000931 0.00010058639154 0.0010480672493 9.220862381e-05 0.00050386891891 0.00076285584643 -5.156929404e-05 1.5028870062e-05 
0.0003825068467 -0.00037197077442 -0.00023563661221 0.0010279514552 -0.00090113539928 -0.00014205057772 4.4157570162e-05 -0.00053922997283 0.00057433376023 
0.00016491806178 -0.00015326679869 0.00010905379328 0.00030418200135 -0.00059536175007 3.4556933885e-05 -0.00069702127067 -0.00021739817366 0.00083057969734 
-0.00034263989295 0.00045234519749 0.00028564362814 -0.00061127656234 -0.0008617194321 0.0010974068336 -0.00099132597274 -0.00017827801143 3.7632369931e-05 
-0.0013997367149 -0.00014156782648 -0.000480377433 0.00032071644892 -0.00029886947936 0.0012215694713 0.00044735996502 -0.00043391443605 0.00050761069325 
0.00038394926604 -0.0022337194471 9.6400797748e-06 0.00018049483839 -0.00082935134532 0.00042904987118 -0.0003617963688 -0.0012529408995 -0.00010799331737 
0.00065028780005 -0.00022498855994 -0.00063104088529 -5.985161284e-05 -0.00070954405014 1.9901535364e-05 0.00040253036403 -0.00071849456529 1.9710072456e-05 
-0.0004018670464 -0.00038053539182 0.00029263390003 0.00062516539869 -0.00099240517085 0.00065027553368 0.00012090638002 -0.00020093489102 0.001022960783 
6.1284969584e-05 -0.00061797801012 -1.2076519425e-05 0.00058013200847 -0.00035497365836 -0.0001455296708 9.3056385019e-05 -0.00059211441138 0.0001384348278 
-0.00015790967765 2.8196064988e-05 -0.00072891226067 -1.1779944969e-05 -0.00093425363158 -5.1106233476e-06 -0.00065931365149 -0.00080187518535 9.2757074331e-05 
0.00031223877807 0.00031033555307 -1.2495153588e-05 -0.00082520149257 -0.00091718567199 6.8595083194e-05 0.00028165761703 -0.00054650958376 0.00010134262814 
0.00072918475574 -0.00090348001631 -5.2381345243e-05 0.00040171481929 -0.00082274109791 0.00058995174399 6.515752824e-05 -0.00080240509235 -0.00014485044792 
0.00033104781143 -0.0006891634279 -4.7347408723e-06 0.00016428761614 -0.0011511795366 1.5958429917e-05 0.00029029593489 -0.001189833028 1.2483183431e-05 
0.00011371542898 -0.00097926305466 -0.00012740572049 -0.00018272450622 -0.00099009110737 -0.00011724002118 0.00078190474584 -0.00073103129623 -7.6567614684e-05 
0.00071044347776 -0.0014818634437 -1.6607100223e-05 7.05634062e-05 -0.0016109784503 0.00055215676833 -8.9013884932e-05 -0.00086310183565 0.00041436042481 
-5.1761783927e-05 -0.00093676812325 0.00075808078865 0.00017800434055 -0.001059516822 7.0420852881e-06 0.00024946540667 -0.00127526452 3.0715887856e-06 
0.00034035125855 -0.0010752271591 -0.0001896711429 0.0008555575543 -0.0016770137418 -6.2442313338e-05 0.00017525585021 -0.0014475268456 1.6637616064e-05 
0.0002672593187 -0.00055215461628 -0.00014482037521 -0.00043117389245 -0.00095678210305 -0.00047728443727 0.00051932570771 -0.00094662424764 -0.00064748314683 
0.00035402552888 -0.00086912077623 1.7980895188e-05 0.00020285648103 -0.0013528220645 2.2857983893e-05 0.00015495805176 -0.0014229341821 9.5539490445e-05 
0.00029767948724 -0.00096756011591 0.00021755154633 0.00081426274422 -0.0012539045752 -1.5013717591e-05 -0.00021662254364 -0.0020135173131 0.00019045180963 
0.00050688710597 -0.0015230696099 -2.427903668e-05 0.0008025225286 -0.00079926753666 2.72216575e-05 -5.9358483006e-05 -0.0011665252812 -0.000213837788 
3.0739136231e-05 -0.0018825566246 1.144086915e-06 0.00020058046421 -0.0012080699555 -5.0879919469e-06 0.00010814790633 -0.0014575541064 0.00079394118795 
0.00015698369835 -0.001264224631 4.2327690508e-05 0.00032615335143 -0.00085357377815 7.0810242092e-05 -0.00016006597271 -0.001139705984 6.5462028559e-05 