# vtk DataFile Version 4.1
vtk output
ASCII
DATASET UNSTRUCTURED_GRID
POINTS 1274 float
0.513149 0.553463 0.0379544 0.469622 0.650934 0.105198 0.488106 0.597441 0.268458 
0.494866 0.587297 0.0987053 0.423759 0.755745 0.0323159 0.424468 0.768413 0.119742 
0.475644 0.637234 0.212938 0.459536 0.669839 0.268648 0.394104 0.844681 0.0588705 
0.398448 0.812649 0.16493 0.446047 0.698998 0.214821 0.432907 0.738571 0.265757 
0.363028 0.902329 0.0319696 0.343827 0.968027 0.0521066 0.381356 0.878336 0.146406 
0.394956 0.844032 0.231796 0.345482 0.957222 0.259961 0.314116 1.03884 0.0387204 
0.390734 0.913522 0.0865631 0.447968 0.898907 0.110113 0.332336 0.995948 0.130028 
0.40886 0.914851 0.218465 0.310415 1.03773 0.265122 0.35205 0.92939 0.187705 
0.281693 1.10165 0.0486343 0.328089 0.987538 0.200752 0.2866 1.10825 0.260298 
0.257848 1.16221 0.0336643 0.357269 1.11541 0.103781 0.301925 1.0688 0.109315 
0.289796 1.25148 0.0382188 0.302939 1.0452 0.200291 0.283634 1.10033 0.172341 
0.333316 1.25517 0.0924994 0.385153 1.15747 0.0376585 0.27565 1.14822 0.110223 
0.421698 1.14963 0.106368 0.260782 1.15032 0.208503 0.340084 1.10675 0.211275 
0.218691 1.25613 0.0332148 0.320146 1.18567 0.0541521 0.319617 1.15657 0.173654 
0.244823 1.19883 0.1645 0.28743 1.18297 0.26484 0.239156 1.22192 0.093569 
0.372223 1.23127 0.0356631 0.236559 1.2302 0.236382 0.215803 1.25646 0.149531 
0.54091 0.470274 0.0302075 0.61163 0.295417 0.0942062 0.595607 0.358557 0.12185 
0.596926 0.347589 0.198086 0.576161 0.38871 0.2665 0.610306 0.313886 0.262148 
0.540883 0.469563 0.209717 0.508819 0.557573 0.218664 0.603465 0.328727 0.0358989 
0.566611 0.417669 0.159171 0.484059 0.623915 0.0378761 0.608944 0.474738 0.0468648 
0.546042 0.47484 0.0985048 0.549608 0.448042 0.268476 0.565183 0.571508 0.262771 
0.527508 0.512234 0.15957 0.550834 0.668498 0.0308606 0.445419 0.7114 0.0787796 
0.517551 0.697712 0.106447 0.471707 0.753236 0.178277 0.551348 0.547961 0.101724 
0.523099 0.658127 0.266703 0.44634 0.696963 0.145794 0.415049 0.777333 0.214467 
0.501035 0.680677 0.169807 0.554707 0.577182 0.168242 0.494201 0.779944 0.0921986 
0.535656 0.760344 0.146353 0.45912 0.814486 0.0363742 0.508426 0.724243 0.0397538 
0.484507 0.817695 0.15078 0.437044 0.835653 0.113026 0.364672 0.893866 0.269731 
0.499435 0.769282 0.260789 0.538783 0.617309 0.219127 0.563419 0.74754 0.220253 
0.467952 0.815454 0.213634 0.50696 0.705592 0.226407 0.459939 0.889193 0.0399575 
0.520418 0.85348 0.0354186 0.535837 0.79084 0.0326234 0.454044 0.875551 0.177639 
0.495493 0.849699 0.0951639 0.464498 0.869944 0.260663 0.438673 0.803474 0.269008 
0.417207 0.951735 0.0373634 0.373541 1.08928 0.0325883 0.466067 1.00446 0.0331266 
0.40071 0.996539 0.0950842 0.415941 0.947923 0.150948 0.468587 0.964247 0.09139 
0.485379 0.94068 0.262703 0.419657 0.972349 0.261479 0.535129 0.982911 0.2689 
0.460591 0.951331 0.203279 0.383825 1.02408 0.0323964 0.365534 1.05427 0.0848504 
0.463365 1.03212 0.0902251 0.36285 1.06286 0.158343 0.39558 1.00453 0.196833 
0.441753 1.05094 0.264238 0.377188 1.02897 0.267487 0.483233 1.00315 0.236557 
0.457284 1.13584 0.0385421 0.470516 1.08303 0.12311 0.427461 1.04183 0.139109 
0.360906 1.09017 0.269156 0.526819 1.17832 0.175623 0.489843 1.10195 0.267784 
0.407779 1.08812 0.213366 0.429809 1.13347 0.264219 0.445461 1.12015 0.166933 
0.358815 1.16029 0.260112 0.511154 1.18694 0.0383262 0.49873 1.14667 0.120133 
0.43718 1.20561 0.0341932 0.369923 1.20141 0.100971 0.381244 1.13319 0.165995 
0.338883 1.23666 0.260951 0.453315 1.16741 0.207801 0.402658 1.20637 0.221672 
0.469332 1.1908 0.26612 0.487501 1.25489 0.0362705 0.312723 1.21221 0.13734 
0.460502 1.24889 0.225653 0.300349 1.21269 0.203969 0.474912 1.21162 0.169841 
0.37343 1.22808 0.163648 0.639464 0.231817 0.179673 0.564023 0.413036 0.0316631 
0.660072 0.192852 0.0571225 0.660657 0.287824 0.213354 0.64026 0.240904 0.263509 
0.668857 0.174659 0.207392 0.642513 0.223958 0.115736 0.631295 0.405063 0.0363446 
0.592042 0.422515 0.0893393 0.527073 0.509675 0.265846 0.605911 0.486346 0.26303 
0.617303 0.291293 0.159027 0.639492 0.377302 0.246444 0.613898 0.459923 0.136006 
0.588286 0.546305 0.0375218 0.660611 0.422986 0.101282 0.534406 0.635803 0.131466 
0.605214 0.528343 0.146876 0.576265 0.523969 0.211888 0.592801 0.433128 0.220378 
0.613459 0.623367 0.266297 0.603781 0.717386 0.0390317 0.555323 0.609613 0.0645672 
0.569939 0.733254 0.0989497 0.566664 0.69728 0.157993 0.600044 0.70945 0.268227 
0.592071 0.633849 0.175024 0.64492 0.639428 0.211386 0.571779 0.671704 0.224491 
0.597408 0.757902 0.159978 0.587244 0.666224 0.0957207 0.63922 0.786949 0.0390314 
0.561906 0.795619 0.0909555 0.541112 0.813453 0.189972 0.545414 0.831517 0.261832 
0.616425 0.773864 0.265252 0.515491 0.872479 0.211243 0.625593 0.708108 0.201459 
0.600441 0.820241 0.221425 0.585022 0.836838 0.0347556 0.561046 0.85906 0.0929961 
0.565949 0.908638 0.0397014 0.50401 0.94289 0.0315441 0.5522 0.908937 0.260437 
0.598495 0.96646 0.265548 0.528631 0.862159 0.146379 0.50606 0.922337 0.171345 
0.535771 1.00226 0.0513037 0.522859 0.91505 0.105148 0.473166 1.05842 0.190234 
0.469048 0.995018 0.155194 0.53771 0.988101 0.137581 0.518276 1.04582 0.269178 
0.570607 0.944007 0.192191 0.436575 1.06561 0.0348102 0.538668 1.12353 0.0335696 
0.573251 1.06376 0.0351738 0.504171 1.0637 0.0328709 0.552257 1.10705 0.0955248 
0.522895 1.04952 0.104331 0.542619 1.00776 0.209058 0.503128 1.12473 0.204802 
0.538928 1.23327 0.089221 0.574529 1.21083 0.0322881 0.564127 1.17586 0.122867 
0.522839 1.08984 0.15307 0.605094 1.0864 0.268672 0.540385 1.23704 0.159292 
0.534119 1.2109 0.237652 0.567162 1.12882 0.179811 0.556983 1.07226 0.214765 
0.553632 1.13571 0.259467 0.640178 1.20651 0.0426775 0.622329 1.20875 0.11006 
0.465222 1.21393 0.100812 0.647649 1.23487 0.221437 0.595634 1.19753 0.186291 
0.773225 1.16643 0.2058 0.678944 0.130982 0.040048 0.693167 0.119848 0.113988 
0.721562 0.0322017 0.193192 0.682149 0.133931 0.265509 0.697706 0.0948386 0.182753 
0.636851 0.262027 0.0387331 0.696478 0.315288 0.0396619 0.701995 0.225482 0.150731 
0.704586 0.265965 0.267352 0.640156 0.405597 0.173684 0.695459 0.199614 0.267448 
0.678872 0.326717 0.266699 0.663268 0.336116 0.138016 0.678973 0.457649 0.0410394 
0.656875 0.494103 0.0968764 0.651511 0.355212 0.0775477 0.685495 0.46642 0.157593 
0.65021 0.46047 0.216878 0.682134 0.278489 0.104444 0.729478 0.411909 0.197874 
0.690887 0.353775 0.201464 0.611895 0.643732 0.035164 0.66078 0.524645 0.0349374 
0.635699 0.558133 0.089271 0.595635 0.600099 0.119873 0.648296 0.605867 0.15677 
0.664105 0.682806 0.262131 0.639002 0.545101 0.269081 0.687482 0.58146 0.207335 
0.617414 0.577789 0.209332 0.673935 0.545847 0.150195 0.678419 0.51524 0.206392 
0.629721 0.714145 0.12274 0.658401 0.652977 0.0925462 0.697654 0.572223 0.0976296 
0.709184 0.626047 0.14042 0.717051 0.646642 0.206489 0.661607 0.821915 0.268702 
0.665769 0.671072 0.160284 0.624375 0.801654 0.117109 0.64799 0.875199 0.0391003 
0.689574 0.760247 0.0793659 0.708218 0.700798 0.0860276 0.680885 0.762177 0.148971 
0.637742 0.774296 0.203143 0.697088 0.715247 0.205108 0.613548 0.8665 0.265677 
0.582508 0.870981 0.182873 0.614948 0.967925 0.0372509 0.668528 0.983561 0.0765432 
0.63101 0.867704 0.106384 0.644186 0.925982 0.0883208 0.587058 0.906646 0.125083 
0.610109 0.96601 0.138891 0.635203 0.983414 0.209869 0.678034 0.847738 0.147851 
0.635608 0.921269 0.233624 0.643437 0.863194 0.207633 0.632465 0.914964 0.169031 
0.630985 1.10704 0.0300623 0.642178 1.03845 0.0393938 0.694652 1.09086 0.0358781 
0.574982 0.955514 0.0905975 0.595004 1.01967 0.0955142 0.667655 1.04147 0.115443 
0.578339 1.02958 0.260414 0.614131 1.02392 0.161871 0.672447 1.02993 0.183766 
0.616489 1.08858 0.0907841 0.62293 1.14221 0.138172 0.697105 1.16378 0.0370853 
0.595402 1.15275 0.064628 0.582099 1.07596 0.146023 0.624114 1.05486 0.217006 
0.741699 1.13055 0.0834344 0.636544 1.13174 0.223608 0.661226 1.09108 0.167642 
0.603612 1.19404 0.26361 0.749695 1.21081 0.033559 0.791807 1.18004 0.101332 
0.690235 1.16849 0.106141 0.67329 1.1971 0.168545 0.677331 1.18624 0.261079 
0.721644 0.0829085 0.0341656 0.753499 0.121229 0.0769289 0.717995 0.0494908 0.119511 
0.783988 0.058013 0.126737 0.723578 0.0411686 0.262414 0.735641 0.105005 0.24353 
0.707657 0.241539 0.0350602 0.750323 0.18092 0.0391978 0.768229 0.266027 0.0304527 
0.736168 0.178652 0.110593 0.727237 0.156318 0.172464 0.756205 0.166797 0.263423 
0.773813 0.229572 0.154861 0.769812 0.241995 0.262818 0.731891 0.209187 0.212731 
0.703377 0.390971 0.0363946 0.765957 0.327838 0.0314056 0.721119 0.333248 0.103421 
0.747527 0.251345 0.0925416 0.733692 0.417714 0.0925133 0.764879 0.373274 0.12788 
0.704075 0.387435 0.141308 0.748302 0.319438 0.263372 0.733463 0.281072 0.197308 
0.697098 0.420557 0.260496 0.725668 0.512011 0.0880473 0.751256 0.463364 0.0378098 
0.796302 0.483272 0.0865874 0.755092 0.468361 0.136122 0.790704 0.418708 0.170956 
0.675705 0.492377 0.266651 0.804343 0.511742 0.264176 0.773047 0.399071 0.260576 
0.741501 0.480645 0.245813 0.718278 0.547504 0.263651 0.670277 0.597974 0.0391184 
0.693441 0.664292 0.0315324 0.73792 0.531837 0.176337 0.761715 0.579919 0.122279 
0.678904 0.612776 0.2674 0.753218 0.584965 0.216447 0.743479 0.621085 0.267491 
0.673481 0.723948 0.0315239 0.747665 0.747148 0.11196 0.757813 0.690841 0.0385927 
0.728194 0.754358 0.0312109 0.747729 0.654551 0.0972001 0.740292 0.692119 0.261129 
0.688599 0.8154 0.208813 0.727583 0.690888 0.147336 0.751888 0.744069 0.17876 
0.694529 0.743544 0.269539 0.702138 0.932834 0.0399801 0.717757 0.851659 0.0346094 
0.681744 0.82337 0.084358 0.694354 0.886633 0.0951527 0.740381 0.808865 0.159198 
0.738684 0.836211 0.260085 0.73299 0.773122 0.230027 0.681215 0.884609 0.265523 
0.71268 0.876483 0.207897 0.688105 0.949725 0.268912 0.717847 1.01872 0.0398209 
0.7259 1.06737 0.0893883 0.72849 0.950309 0.107481 0.689491 0.945145 0.205819 
0.672116 0.974785 0.138918 0.692684 0.91691 0.150103 0.731099 1.00777 0.154888 
[...]
POINT_DATA 1274
FIELD FieldData 10
VELOCITY 3 1274 double
0.00041272979124 -0.001188842458 8.7512131468e-05 0.00028885980445 -0.00070147309265 -0.00049875023908 0.00061762243557 -0.001508941195 -3.3033791605e-06 
0.00029123419847 -0.000225629899 -0.0013508867931 0.00057944209391 -0.0009735974345 -3.5045806784e-05 0.00048343854488 -0.00076450771165 0.00063198663952 
0.00023328699018 -0.00088834363913 0.00011217979045 9.2779257328e-05 -0.00072720254637 -7.3760565972e-06 0.0003805321116 -0.00086343969639 -0.00011945799575 
0.00022530599697 -0.00063594913329 0.00039966509545 0.00076659841663 -0.002047612507 -0.0016817535516 0.00045192207134 -0.0011209103637 6.4487689456e-05 
0.00018858885133 -0.00056251531092 1.5583949569e-05 0.00056956912021 -0.0014514798491 0.00056938139689 0.00023979754642 -0.00072598025656 -3.2878881722e-05 
0.00039062004834 -0.00096019135969 -0.00039682478908 0.00049239495665 -0.0011955214924 -0.00026126014363 0.00066581552847 -0.0015458590968 -9.3280562149e-06 
0.00055074797343 -0.00088440576396 -7.2408028093e-05 0.0008451816225 -0.0008303724532 -0.00023941754 0.00049707982328 -0.0010840242668 -3.2835927293e-05 
0.00021231850892 -0.00094616914121 6.5744504746e-05 0.00026713310862 -0.0006099280637 -0.00018508215959 0.00027485625306 -0.00065020789613 -0.0001274071957 
0.00066834118752 -0.0016341335156 0.00062347480997 0.00036409567275 -0.00066927994625 4.1939153548e-05 0.00022766969137 -0.00060794733402 3.1704699156e-05 
0.00053080335387 -0.0012689175904 7.0536327047e-06 0.00044451010918 -0.0010185770954 -0.00073529653966 0.00030912752809 -0.00073053741946 -0.00040248723515 
8.2649450711e-05 -0.0015086569832 2.5038585414e-05 0.00023783944692 -0.00073922249122 -1.5063541842e-05 0.0003080865802 -0.00074105789268 -7.1502832666e-05 
0.00037528768959 -0.0010281342954 -0.00026068685113 0.00083970690125 -0.0011748074926 0.00040261415743 0.00031862613322 -0.00076027876576 -6.3866076996e-06 
0.0004371853349 -0.00098505739487 -0.00021108951581 0.00031337308747 -0.00071558197622 -0.00011621543324 0.00015746591545 -0.00092009407569 -6.3687889079e-05 
0.00018283727586 -0.00041925904802 1.6458983683e-06 0.00063319699018 -0.0013565589065 -0.00030357808921 0.00040080654261 -0.00078495788394 -0.00012788118088 
0.00030197815571 -0.00071333775826 -0.00011722178772 -2.9474573029e-05 -0.00061193343142 -1.4571893447e-05 0.00033420206811 -0.00079892293489 -0.00028172893761 
0.00070052708943 -0.0013388398689 1.5945391698e-06 0.00018695316825 -0.00043617001333 -0.00015339448711 0.00031472194174 -0.00076059841944 -0.00031224892894 
-0.00015575553571 0.00086732506804 -1.7632472801e-05 -0.0012154271939 -4.3620499475e-05 -0.00078906591534 2.3654625237e-06 -0.00031475232594 0.00070743149063 
0.00018584075256 -0.00046156339542 0.00053936812955 -9.6412156665e-05 -0.0016791323585 -0.0013544544674 0.00061066445245 -0.0015829600605 -3.9970116793e-05 
0.00014387512373 -0.00049601684635 9.0942420186e-06 0.00055797296004 -0.00089291857203 -0.00055352563805 9.1580741927e-05 -0.00025389785665 -1.997845031e-05 
1.2197712735e-05 0.00044447013347 -0.00045790859627 -3.2075759736e-05 -0.00035340196585 6.5702378741e-06 -0.0014552862759 -0.0014493519533 -0.0016436163413 
9.6666249583e-05 -0.00035556034393 -3.2217435188e-05 0.0010701945775 -0.00025557519522 0.00021439397793 3.8184516106e-05 -0.0011258791642 4.0591762148e-05 
8.6217944835e-05 -0.00065281291314 0.00020051028806 -0.00016887259051 -0.0011906419052 0.00038430009327 5.0399093632e-05 -0.00017980567641 0.00036230956552 
0.0001746680393 -0.00053828859285 0.00012429647412 0.00016072520557 -0.00063533251478 -3.4019376759e-05 0.00016239405119 -0.00043767881077 0.00083202601465 
-0.00046952084456 -0.0012986063967 -0.00024466307452 0.00039659267076 -0.00098977625417 -0.00052418431623 0.00024841737414 -0.0010812050649 2.6956507517e-05 
-4.6924459427e-05 -0.0010012536461 -0.00042744722678 2.9963142615e-05 -0.00078017910837 -0.00089197269635 0.00015752785949 -0.00066824388252 -0.00012372903636 
0.00061398483036 -0.001681256291 0.00074379922169 0.0004311446235 -0.00087088610626 7.863468597e-05 0.00051684217977 -0.0011033849187 0.0001851776247 
0.00046792035052 -0.00098246263301 0.00031565561171 7.9031099717e-05 -0.00066609230819 -0.00025691695063 0.00053114945693 -0.0011506081776 5.2979701241e-06 
9.0242765629e-05 -0.00047379253877 -0.00025740128807 0.0007537770752 -0.0012056081713 0.00032674572567 0.00038931601728 -0.0012873121516 0.00025739515643 
0.0003537139586 -0.0011632163426 0.00028449186029 0.00033842515048 -0.00084435906323 -0.00013965662115 0.000183034898 -0.00088097796823 -0.00033884744009 
4.9338349925e-05 -0.0011562022686 0.00030929975833 9.3729314944e-05 -0.00090550473661 -0.00045092602379 6.8364064752e-05 -0.00089703545058 -0.00028087481611 
0.00061744825054 -0.0010513286466 -1.1408766144e-05 -0.00066400459635 -0.00092481138807 -3.4653546389e-05 -1.4754686098e-07 -0.00095856617903 0.00012870320011 
0.00087827098457 -0.00050265127161 9.5190015468e-05 5.6742668341e-06 -0.0010737204737 -8.9922292792e-06 -6.4296923483e-05 -0.0010210496187 3.5267119141e-06 
0.00022333083412 -0.0010780453891 0.00023760238505 0.0010913116907 -0.0010979273757 4.2317692526e-05 0.00072454293323 -0.00066746937854 0.00028877857685 
0.00013809585619 -0.0011999868809 0.00058765074809 0.00023862833839 -0.00080704749538 -0.00014605436744 0.00030626876311 -0.0014576128338 -2.4725151977e-05 
0.0009807281876 -0.0019215446912 -1.2464550935e-05 0.00037430666529 -0.0014464490199 -2.6907487957e-05 0.00026010541837 -0.0012218310038 -0.0001176714749 
-0.00014923099914 -0.00082539336822 -5.2066989926e-05 0.00030337965991 -0.00087939195279 -0.00013764742965 0.00029880853979 -0.00089339402592 -7.4119075888e-05 
0.00033662948626 -0.00067874169366 -2.0995982786e-05 0.00016573659297 -0.00091110855229 0.00027455929886 8.1080003187e-05 -0.0012591179235 0.00046512256319 
0.0008177131956 -0.0011748352418 -0.0001018013566 1.4327324232e-05 -0.00079500044513 -0.00013860373644 0.00044148918993 -0.0010711061879 0.00051399068771 
-0.00010106371916 -0.00091982247805 -3.4810296171e-07 0.000645658448 -0.00084911719038 0.00032119798397 0.00030107128889 -0.0011472252219 -4.9839642309e-05 
-0.0001541909883 -0.00083718831194 0.00020219573606 0.0004510922712 -0.00084036486597 -3.5105884336e-05 0.00030490353905 -0.00098237210869 0.00024720624477 
-0.00018191607089 -0.00093336813767 -2.5811784204e-05 0.00028608125529 -0.00060016221025 -2.5823768717e-05 0.00034641674282 -0.0010019535922 0.00065320763771 
0.00078182957137 -0.0011786644513 -3.1155016239e-06 0.00044835887851 -0.0009863378371 -0.00012906513458 0.00026200577627 -0.00084771174518 -0.00064470451016 
4.3602678422e-05 -0.00087596049042 -8.4907948859e-06 7.8049547607e-05 -0.00091116686595 0.0001598066612 0.00039544764885 -0.00081668376937 0.00078469330708 
0.00025845083117 -0.00073914715807 1.3569063628e-05 0.00021505435439 -0.00062396274175 -1.6988201941e-05 0.00032155005266 -0.00076840473861 -3.7178126418e-05 
0.00041464974363 -0.00074888457082 -0.0001725754193 9.4076333152e-05 -0.00086605836806 -7.440750248e-05 0.00052466882569 -0.0011442317314 0.000120048239 
0.00047080814232 -0.0019421349834 0.00029944739601 -0.00020532900515 0.00038842230289 0.00049797195384 -0.0001168229344 0.00093337475798 -0.00014346787079 
3.7074315659e-05 -0.0001717195323 0.0006607602524 -0.00075344968253 -0.00064185907343 -0.00039369592868 -9.4853605986e-05 0.00041446707829 0.00054785440607 
-0.00012443024777 9.9524887229e-05 0.00019440658712 -0.00020107739272 0.00042648920472 0.00023618805367 -0.0020678722208 -0.002356423001 0.00026672084194 
0.00089986957092 1.9923012574e-05 2.2896259672e-05 -0.00020830676247 -0.00061009483225 -4.1345683447e-05 0.0003928967549 -0.00080149161368 0.00040843121782 
0.00010335953832 0.00096711799216 -0.00032246816698 0.00065867467905 -0.00044666099156 0.0016081801645 0.00029522943026 -0.00084369867733 0.00061873899312 
0.00053859937438 -0.00064401341765 -1.4778025262e-05 0.00058832231497 -0.00018952954611 -0.00081784773485 0.00026617654687 -0.00070673192899 -0.00040336940695 
0.00093868961407 -0.00048735618944 -0.00041111641144 0.00045407355977 -0.00083602918387 -7.7776358524e-05 0.00018916772128 -0.00011536044006 0.00036562947039 
-0.0004451332083 -0.00044564112302 0.0001119447412 1.976244396e-05 -0.0008196874447 -0.0001149023 0.00021966212161 -0.0010416365377 -0.00052191956878 
0.000856406695 -0.0006596884384 0.00029407222366 0.00035458300576 -0.0015107170042 0.00029360708296 -0.00033144297931 -0.0009758785189 0.00019561405094 
0.00018973616796 -0.00089157343711 0.00058009611013 0.00037247565634 -0.0015759015365 0.00020080458294 -0.00034436146285 -0.00047652238235 1.1437786309e-05 
-0.0013584873757 -9.8995935015e-05 -0.00026820474977 0.00032380855437 -0.00030597675326 -0.00061860386206 0.0002442269465 -0.00099265650343 -0.00015039740477 
0.00023955679952 -0.0015924067531 -9.4803276754e-05 -0.00068171150496 -0.00071395997858 2.6589076674e-05 0.0003685578915 -0.00079167675826 -5.4217635177e-05 
-1.1589608708e-05 -0.00051006748225 -9.0054708505e-05 -0.00015704160255 -0.00087211686741 0.00039780725354 -1.8870322854e-05 -0.0004680801622 8.1047523538e-05 
-7.0923058866e-05 -0.0015363292365 -0.00028596003711 0.00024863434149 -0.00098136038275 0.00027322835536 0.00048007702705 -0.0017102666882 0.00039471528327 
-0.00010060752283 -0.0010002184516 -0.0001552788823 6.0936221407e-05 -0.00065244630551 0.00017228946104 0.00034639696012 -0.0008366006184 -3.1426634378e-05 
0.00039542440088 -0.00087015570066 0.00015958916326 0.00014559214497 -0.000713196688 -1.3339466228e-05 0.00058954853534 -0.0015257428751 -0.00090485732226 
0.00046145722025 -0.0010118985684 0.00034940231246 0.00035033865396 -0.001475149485 -0.001095803769 -3.8714204436e-05 -0.00096947372759 0.00081984526576 
0.00054331345297 -0.00061618543829 0.00025923797599 0.0003271793195 -0.00071178914577 -0.00029264348725 0.00042001592437 -0.001096560781 -5.220922959e-05 
-1.3444354783e-05 -0.00062860535038 1.1990497326e-05 2.8150632909e-05 -0.00095510712862 0.00010015602448 0.0001373935075 -0.00065856008638 -7.1656553358e-06 
0.00030564140749 -0.0010064410077 2.2929596818e-05 -4.211720448e-05 -0.0013536091579 3.8363807407e-06 0.00021067663544 -0.00079422354116 -0.00016771277082 
-0.00010201535956 -0.00086336704233 -0.00039733602723 -0.00020523464547 -0.00067230727876 -0.00011177083152 0.00012446527981 -0.00084174056552 -2.1616682867e-05 
0.00035565876512 -0.00075038989413 6.2324346574e-06 0.00033969283722 -0.00075649152636 -2.8150154336e-05 0.00033646859172 -0.00081249814124 -0.00014765581681 
0.00012271273257 -0.001802899746 0.00035546998669 0.00033161361991 -0.00083619528135 -3.5802294936e-05 0.00028237741429 -0.00089282430337 -5.2357314657e-07 
0.000162943685 -0.00033277819335 0.00010874245285 0.00042302687783 -0.0011346394245 -0.00015145363782 -4.0068348473e-05 -0.00078177860489 0.00027992654735 
0.00018666582601 -0.00095621344118 -1.6859790519e-05 0.00037722219679 -0.0011382030487 -0.00032333444419 0.00027522121181 -0.00090751794024 -0.00035549708246 
0.00044237009225 -0.00097133203448 0.00010550933805 0.00024583781472 -0.0010942792499 -4.9576257312e-06 0.00018160531144 -0.0010458567677 -3.6615563529e-05 
-4.8713423995e-05 -0.0015422604345 -0.0001718590298 -2.2814584998e-05 4.950894059e-05 -7.1845069972e-05 -1.4446315926e-05 -0.00020022631527 0.00087163883734 
-5.7009886819e-06 4.877037842e-05 0.000618391742 -3.5567089634e-05 7.7270895676e-05 -0.00018589640662 -2.5189571844e-05 0.00010818190704 0.0013674814454 
-0.00019938658546 -0.000384643657 0.00010209641951 -0.00082530100242 -0.00031392859776 -0.00053653739208 -0.00076320201066 0.00036761647152 0.00051022213194 
0.00010499721854 -0.00043466875106 -0.00026836382509 -9.7350474753e-06 -0.00065526710911 -7.8396152075e-05 -2.3071317935e-05 3.9628792167e-05 -0.00021277334191 
0.0024685081676 -1.1812777359e-06 -3.5563217023e-06 -0.0008933197931 -0.00059705794604 0.00055005597019 -0.00080559973956 -0.0004586676481 -0.00057443659099 
-0.0024175392026 -0.0010805717847 -0.0003721167961 0.00039415260727 -0.00094933205713 0.00027148091392 -0.00061716635929 -0.00015425570848 -0.00059197990803 
0.00059637621042 -0.0018203546737 -3.6533665575e-05 0.0016677721492 0.00053171772104 0.00073707379964 0.00044401088879 -0.00014707516301 0.00032545597725 
0.00041235828441 0.00025945337718 0.00020409785867 0.00022728360116 -0.0010996746061 -0.00010234104944 -0.0012841937161 -0.00051979332441 -0.00034530495602 
0.00036427483084 -9.5236483969e-05 0.00023744784221 0.00029210355463 0.00048083679492 -7.2035175253e-05 0.00033444441225 -0.001485094285 -0.0001303365002 
-0.00047149546559 -0.00092936427427 -0.00013875037971 0.00079880102471 -0.00093975281153 7.4086485554e-06 0.0004699860774 -0.00098008866396 0.0001826458595 
0.00026736370959 -0.00053824675882 0.00036158659653 0.00095124073228 -0.00016438467297 0.00095692821881 -0.00045374266889 -0.0013946471919 -1.8998902381e-05 
0.00069893155743 -0.0012500188776 0.00021382962932 -9.2763295137e-05 -0.0017315280353 0.00035131896203 0.00015800389897 -0.0019446488593 -0.00044013324784 
0.00028691439784 -0.0013393124689 0.0004952356429 -0.00027508376692 -0.00068137146187 -0.00061617055882 0.00062450209746 -0.0014950853484 -0.00059283720033 
-7.1326451024e-05 -0.0016476599086 0.00011194437035 0.0002430970878 -0.0016207895574 0.00039344280267 0.00042895179525 -0.0012197858821 0.00012393253202 
3.6338463519e-06 -0.0022754263601 -0.00049095942016 -0.00068616975942 -0.0010880935914 0.00039764932826 7.1525905454e-05 -0.0009331364128 -0.00078728014509 
0.00081188749502 -0.0018029752254 -0.00029092751314 -3.8379057187e-05 -0.0015210896059 -0.00064625516146 0.00064693525947 -0.0017054218037 -2.7970304583e-05 
-0.00038374642005 -0.00095561361143 0.001033505546 0.00029002340614 -0.0012892254065 4.4674657076e-05 0.00015069800183 -0.00081167963289 4.6380323432e-05 
0.00068083675305 -0.0013018380132 0.00043285861744 0.00040894423785 -0.0013340632891 0.00022290380969 8.4280917523e-05 -0.0015595680709 -8.0620948324e-05 
0.00011253867738 -0.00096680325778 -0.00015499862951 0.00069557611746 -0.0010039395625 0.00022626781465 0.0011387634184 -0.0017313810736 0.00018553621805 
9.4103431618e-05 -0.0011682532459 2.7545240708e-05 -0.00068437080998 -0.0048567596506 -0.00042151581657 -0.00032528633743 -0.00073557104917 3.5653819897e-05 
0.00049087500303 -0.00069405763132 5.6161809802e-06 0.00023474104915 -0.0012460898195 -0.00058108860695 0.0003231928492 -0.0013258376517 -6.7570317866e-05 
0.00093598397823 -0.0010574046202 -0.00017852666762 0.00075313578693 -0.0010848949744 -1.3388080295e-05 0.00049606738046 -0.00067742194599 3.6073439686e-05 
0.00050894043377 -0.00091769341485 -9.9894319204e-05 0.00018785782905 -0.0014459363122 0.00011311934107 5.9773027896e-05 -0.0009862902944 -9.1576801863e-05 
6.2937428956e-05 -0.0011605003661 -0.00016277355465 0.00033305396099 -0.00083899800587 -0.00018731791066 0.00028658606499 -0.0013080301701 3.7215937241e-05 
0.00021774659047 -0.00092038623157 -0.00012877819755 0.00023233283036 -0.0012548608132 -6.8542487097e-05 0.00021870981889 -0.0010595325305 1.2775488034e-05 
0.00044367195398 -0.00092389939464 0.00012219457209 0.00035304005566 -0.00086237693651 3.3712408999e-05 0.00015118737901 -0.00091947529386 1.2703710848e-06 
0.00013485569112 -0.00080349523282 -2.9078359221e-07 0.00041169439428 -0.0014357875268 -2.3782962393e-05 0.00097400276867 -0.0016369844616 0.00054378999697 
0.00051023227923 -0.00075092503064 -1.9907563243e-05 0.00023891907599 -0.0013221848008 0.00016661217631 0.00011526814769 -0.00094914265985 0.00034142411765 
0.00034447423398 0.00029781155122 -1.4651251095e-05 9.7636883116e-05 -0.0006658595004 0.00078767112775 3.5929660451e-05 1.2586627725e-05 0.0011492024687 
-0.00073015733928 -0.00093609138462 0.0012127291909 0.00011547640163 -0.00023274276697 -0.00047696875092 0.00054900400786 0.00072972861097 0.0007357396551 
0.0001194232574 -0.00014118927096 0.0014813318733 -0.0008315732663 -0.00076226765673 -0.00056898847455 0.00015326442515 0.0015714414053 -0.0010962910304 
-0.00020583105004 7.4840625184e-05 0.001125724456 -0.00055919958714 0.00016286588816 -0.00065395859807 -0.00024057883064 -0.00048452350788 9.4352968819e-05 
-0.00017612990982 3.7017566923e-05 -0.00025538336856 0.00022265839972 -0.00072837336072 0.00019601640814 -0.0003988049806 -0.00026906108249 0.00028903634646 
0.0001673710516 -0.00030611012653 0.00035193034461 0.00040872150225 -0.0003445256565 0.00081349833151 0.00058113317025 -6.6826028487e-05 -0.00012631339256 
-0.00016995351701 -0.00075989688345 0.00022692461922 0.00040126866592 -0.00042326346344 -5.1089143175e-05 0.00012338291643 -1.8432096196e-05 0.00017627418035 
4.0035251995e-05 0.00016400353164 0.0005627479487 0.00050301172297 -0.00088398349968 -0.0027525970065 -9.3953620426e-05 -0.00027321922286 0.00079697540053 
-0.00016740788938 0.00063180602101 -0.00026677774261 -0.0012936608206 -0.0014101286762 0.0011066509349 -0.0010815833621 -0.00027341473396 0.00010459230424 
-0.0013735799269 -0.00021890794957 -0.00035030358713 7.8184898609e-05 -0.00089130835527 0.00082974015256 0.00039417558437 -0.00044244217624 0.00052933607701 
0.0010723165875 -7.6035150603e-05 3.0547928646e-05 0.00020391443464 -0.00023329187802 -0.00010675719389 -0.00060575081531 -0.0011043920779 1.3824334433e-05 
0.00056562087347 -0.00020628649525 -0.0005991446393 -0.00037456408068 -0.00057277171412 -5.0547708187e-06 0.0011598457322 -0.00040120847695 -0.00021238856402 
-0.00088854243521 -0.00060016334663 0.00035594890303 0.00056922630577 -0.00093043047912 0.0006511941447 0.00029837393911 -0.00068773372452 0.00071235433873 
-0.00013710357204 -0.00052923335863 -0.00013244746417 0.0001896188156 -0.00032966056307 0.00017631294642 5.6804596194e-05 -0.00027750610233 0.00043965090634 
4.0191506534e-05 -0.00049844415363 -0.0011298916277 -0.00052906141898 -0.0012526340894 -0.00052239987802 -0.00068801259112 -0.0011240721297 0.00022193784293 
0.0002018778501 0.00025378872654 -0.00015989299408 -0.00081743289808 -0.0014546032745 -0.00012897735173 -0.00016037855803 -0.0012507192149 -0.0001948455844 
0.0012341819208 -0.0019190127946 5.1501224497e-07 0.00018227263173 -0.0011040005891 0.00021325420462 0.000327728053 -0.0013394196597 -0.00022981729151 
-0.00039297830372 -0.0011026252511 2.5765794258e-05 4.9331279444e-05 -0.0010543792625 1.0386740747e-05 3.8227029321e-05 -0.0011670628525 1.2135800699e-05 
0.00018430736376 -0.0014076750803 7.1281904425e-05 -0.00010853595999 -0.0012162225117 0.00010128402365 -0.0006993163412 -0.00054874738168 -0.00057404662729 
0.0013720526498 -0.0033512613887 9.466698331e-05 -0.0010110958409 -0.0030878134964 3.7628622198e-05 -8.7611677849e-05 -0.0010227887942 0.00034254725408 
0.0011857631827 -0.0024432165109 0.0011698619815 -0.00015517886837 -0.0010974372202 1.3095135346e-05 0.00022886028121 -0.0013834238868 6.5098330681e-06 
0.00037602374322 -0.00078849446426 -0.00057969216575 0.0004141611529 -0.0014464846636 0.00011973998889 0.00017744849396 -0.0014285597028 6.9918735326e-05 
0.00031605773904 -0.0006433848929 9.3616418003e-05 -0.00025817249345 -0.00088908278889 -0.00024147174843 0.00077068950432 -0.001294891834 -0.00011283034159 
0.00058417621209 -0.00094492860387 -2.0436761508e-06 -2.3314263407e-05 -0.0014252455318 7.9919768659e-05 -5.9077525327e-06 -0.0015360069481 -0.00022267981679 
0.00034211202939 -0.0010732911141 0.0002647677972 0.00050814244388 -0.0013064007983 3.4785223496e-05 -6.6526270671e-06 -0.0016618655268 -8.2317252204e-05 
0.00030301246249 -0.0017201636595 -0.00018487844372 0.00052170325855 -0.00076803806093 -0.00012242285448 0.00067007536607 -0.0011714937153 -0.000344857509 
7.4818770981e-05 -0.0017690026028 7.7447207385e-06 0.00069200984121 -0.0014647273919 -0.00021874256508 0.00020939296105 -0.0012929706704 0.00041358847224 
-0.00012133381318 -0.0014922637524 9.5414929734e-05 0.00040445897232 -0.00099205118835 -0.00040873278067 5.2995683451e-05 -0.0011572503413 -2.1563321239e-05 