# vtk DataFile Version 4.1
vtk output
ASCII
DATASET UNSTRUCTURED_GRID
POINTS 1274 float
0.512902 0.554059 0.0379528 0.469501 0.651227 0.105305 0.487811 0.598158 0.268458 
0.494744 0.587586 0.0989043 0.423635 0.756044 0.0323153 0.424366 0.768666 0.119553 
0.475513 0.637552 0.212913 0.459477 0.670148 0.268648 0.393912 0.845149 0.0589128 
0.398341 0.812908 0.164731 0.4458 0.699603 0.215028 0.432704 0.739065 0.265757 
0.362871 0.902709 0.0319698 0.343613 0.968546 0.0519432 0.381228 0.878646 0.146407 
0.394784 0.844451 0.231919 0.345273 0.957729 0.260055 0.313892 1.03939 0.0387203 
0.390499 0.913921 0.0865996 0.447712 0.899208 0.110142 0.332167 0.996361 0.130005 
0.408767 0.915237 0.218493 0.310313 1.03798 0.265122 0.351931 0.92968 0.187736 
0.281458 1.10222 0.0484327 0.327965 0.98784 0.200718 0.286498 1.10849 0.260298 
0.257651 1.16269 0.0336643 0.357098 1.1158 0.104105 0.301801 1.0691 0.109359 
0.289759 1.25203 0.0382189 0.302815 1.04551 0.2003 0.283504 1.10064 0.172376 
0.333189 1.25555 0.0925824 0.384889 1.15794 0.0375733 0.275527 1.14852 0.110235 
0.421547 1.14999 0.106447 0.260658 1.15062 0.208559 0.340018 1.10711 0.211312 
0.218628 1.25628 0.0332148 0.319928 1.18615 0.054212 0.319494 1.15688 0.173665 
0.244707 1.19912 0.164532 0.287459 1.18321 0.26484 0.239024 1.22224 0.0936879 
0.371951 1.23179 0.0356631 0.236489 1.23037 0.236438 0.215678 1.25676 0.149662 
0.541097 0.470146 0.0302071 0.611632 0.295414 0.0943235 0.595553 0.358697 0.121608 
0.596865 0.347734 0.197845 0.576087 0.388875 0.266502 0.610164 0.314224 0.262022 
0.540789 0.46979 0.209745 0.508651 0.557981 0.218966 0.603409 0.328861 0.0358989 
0.566616 0.417657 0.159226 0.48396 0.624155 0.0380328 0.609641 0.475426 0.0476581 
0.54597 0.475013 0.0985017 0.549543 0.448202 0.268476 0.565162 0.57188 0.262771 
0.527433 0.512417 0.15956 0.5507 0.668832 0.0308607 0.445334 0.711606 0.0786684 
0.517469 0.697965 0.106509 0.471491 0.753654 0.178224 0.551181 0.548154 0.101464 
0.523079 0.658642 0.266702 0.446239 0.697203 0.145969 0.414862 0.777789 0.214433 
0.500999 0.681133 0.16998 0.554455 0.577413 0.168404 0.49412 0.780391 0.0921386 
0.53547 0.760732 0.146353 0.45887 0.814862 0.0363746 0.508372 0.724638 0.0397545 
0.484391 0.8181 0.150742 0.436836 0.835946 0.113051 0.364469 0.89436 0.269731 
0.499322 0.769584 0.260788 0.538661 0.617695 0.219204 0.563321 0.747903 0.220243 
0.467791 0.815873 0.213585 0.506729 0.706158 0.226551 0.459856 0.889563 0.040021 
0.520379 0.853936 0.0354154 0.535695 0.791271 0.0326229 0.453963 0.875937 0.177681 
0.495264 0.850143 0.0952357 0.464683 0.870342 0.260663 0.438658 0.803951 0.269008 
0.416968 0.951996 0.0373626 0.373513 1.0897 0.032588 0.465961 1.00482 0.0331271 
0.400507 0.996931 0.0949896 0.415671 0.948309 0.150863 0.468333 0.964526 0.0913421 
0.485394 0.941134 0.262476 0.419638 0.972741 0.26148 0.535047 0.983444 0.2689 
0.460227 0.95201 0.203252 0.383691 1.0246 0.0323967 0.365448 1.05476 0.0848856 
0.463425 1.03242 0.0902603 0.362755 1.06323 0.158359 0.395447 1.00488 0.196854 
0.441672 1.05125 0.264237 0.377099 1.02931 0.267487 0.483234 1.00363 0.236391 
0.457018 1.1363 0.0385422 0.470472 1.08336 0.123119 0.427329 1.04221 0.138989 
0.360966 1.09055 0.269156 0.526559 1.17868 0.175473 0.489772 1.10242 0.267779 
0.407783 1.08845 0.213318 0.42967 1.13381 0.264219 0.445389 1.12054 0.166872 
0.358886 1.16067 0.260112 0.511075 1.1872 0.0383662 0.498632 1.14701 0.119909 
0.436897 1.2061 0.0341932 0.369762 1.20176 0.101014 0.381157 1.13353 0.166211 
0.338862 1.23702 0.260951 0.453276 1.16778 0.207763 0.402522 1.20671 0.221382 
0.469276 1.19108 0.266121 0.487439 1.25515 0.0362705 0.312589 1.21252 0.137349 
0.460344 1.24921 0.225734 0.300306 1.21301 0.203995 0.474705 1.21208 0.169817 
0.373239 1.22881 0.163534 0.639527 0.231662 0.179484 0.564098 0.41286 0.0316152 
0.660041 0.192923 0.056832 0.660903 0.287718 0.213313 0.640222 0.240981 0.263511 
0.668906 0.174545 0.207294 0.642595 0.223765 0.115618 0.63146 0.405705 0.0363485 
0.592126 0.422813 0.0893959 0.527008 0.509833 0.265848 0.6057 0.486707 0.262936 
0.617335 0.291223 0.159146 0.639353 0.377388 0.24631 0.613742 0.460174 0.136212 
0.588007 0.546595 0.0375209 0.660548 0.423392 0.101455 0.534234 0.636104 0.131703 
0.604904 0.528614 0.146817 0.575971 0.524329 0.211842 0.592694 0.433349 0.220426 
0.613554 0.623631 0.266297 0.603693 0.71783 0.0390308 0.555308 0.609997 0.0646417 
0.569662 0.73375 0.0988262 0.566574 0.6977 0.157835 0.599966 0.709848 0.268229 
0.591778 0.634159 0.174754 0.644521 0.64007 0.211218 0.571882 0.671958 0.224503 
0.597238 0.75835 0.159945 0.587153 0.666268 0.0958643 0.639201 0.787358 0.0390311 
0.56177 0.796301 0.0909309 0.541275 0.813832 0.189934 0.545335 0.831794 0.261832 
0.616295 0.774276 0.265251 0.51552 0.872845 0.21108 0.625501 0.708547 0.201299 
0.600471 0.820838 0.221487 0.584951 0.837192 0.0347836 0.560921 0.859744 0.0928753 
0.565993 0.909025 0.0397007 0.504004 0.943187 0.0315442 0.552137 0.909213 0.260437 
0.598361 0.966791 0.265548 0.528585 0.862498 0.146357 0.505866 0.922886 0.171681 
0.535604 1.00267 0.0512271 0.522829 0.915693 0.105515 0.473241 1.0588 0.189928 
0.468859 0.995316 0.155061 0.537574 0.988349 0.137675 0.51816 1.04627 0.269178 
0.570618 0.944256 0.192197 0.436539 1.066 0.03478 0.538689 1.12384 0.0335693 
0.573134 1.06416 0.0351737 0.504138 1.0642 0.0328709 0.552238 1.10736 0.0955341 
0.522947 1.04981 0.104416 0.542718 1.00805 0.209073 0.503082 1.12509 0.20482 
0.538781 1.23358 0.0892521 0.57439 1.21123 0.032288 0.564009 1.17622 0.122957 
0.522867 1.09044 0.152892 0.604964 1.08671 0.268672 0.540308 1.23741 0.159319 
0.534068 1.21106 0.23758 0.567033 1.12931 0.17997 0.556991 1.07257 0.214671 
0.553595 1.13612 0.259467 0.640021 1.20692 0.0427964 0.622225 1.20911 0.110195 
0.465051 1.2143 0.10078 0.647643 1.23529 0.221484 0.595634 1.19798 0.186291 
0.77325 1.16703 0.205852 0.67895 0.130966 0.0401287 0.693147 0.119898 0.113568 
0.721563 0.0322009 0.19303 0.682141 0.133948 0.265511 0.697717 0.0948132 0.182303 
0.636833 0.262181 0.0387369 0.696122 0.3154 0.0396665 0.70209 0.225422 0.15059 
0.704507 0.26614 0.267352 0.640141 0.405858 0.173803 0.695386 0.199643 0.267447 
0.678752 0.326869 0.266685 0.663132 0.336125 0.137937 0.679521 0.457922 0.0413293 
0.658144 0.494566 0.0970458 0.651738 0.355924 0.0776189 0.685768 0.4665 0.15787 
0.650025 0.46085 0.216907 0.682021 0.278464 0.10443 0.729277 0.411993 0.197742 
0.690754 0.353817 0.201384 0.611805 0.644175 0.0351632 0.661203 0.52485 0.0349337 
0.635596 0.558091 0.0891644 0.595497 0.599896 0.119933 0.648152 0.606326 0.156731 
0.663992 0.683123 0.262133 0.638704 0.545501 0.269081 0.687329 0.581783 0.207289 
0.617262 0.578035 0.209174 0.673599 0.546221 0.150162 0.678166 0.515577 0.206336 
0.629396 0.714528 0.122644 0.658397 0.653609 0.0922456 0.697489 0.572398 0.097569 
0.708938 0.626486 0.13998 0.717137 0.646859 0.206596 0.661476 0.822327 0.268702 
0.665596 0.671481 0.160065 0.624305 0.801971 0.117011 0.647894 0.875595 0.0390999 
0.689535 0.760676 0.0793993 0.70829 0.70136 0.0857892 0.680671 0.762378 0.148987 
0.637556 0.774749 0.203123 0.697019 0.715415 0.205056 0.61363 0.867141 0.265677 
0.582652 0.871339 0.182568 0.614974 0.968325 0.0372509 0.66858 0.983927 0.0765218 
0.630873 0.86804 0.106366 0.644071 0.926332 0.0883661 0.587063 0.907058 0.125242 
0.610061 0.966417 0.138919 0.635041 0.983798 0.209866 0.677877 0.848119 0.147879 
0.63559 0.921669 0.233661 0.64348 0.863705 0.20762 0.63259 0.915444 0.169053 
0.63079 1.10726 0.0300647 0.642068 1.03889 0.0395746 0.694518 1.09132 0.035878 
0.574893 0.955844 0.0906726 0.594755 1.02005 0.0955568 0.667612 1.04176 0.115533 
0.578188 1.02991 0.260402 0.614087 1.02435 0.161852 0.672358 1.03032 0.183875 
0.616475 1.0889 0.0908584 0.622797 1.14254 0.138245 0.69697 1.16424 0.037085 
0.595376 1.15305 0.0646949 0.582153 1.0765 0.146192 0.624101 1.05526 0.216997 
0.741529 1.13102 0.0834702 0.636409 1.13206 0.223612 0.661196 1.09145 0.167654 
0.603589 1.19443 0.26361 0.749455 1.21139 0.033559 0.791493 1.1807 0.101228 
0.689973 1.1688 0.106138 0.673282 1.19763 0.168509 0.677296 1.18654 0.261002 
0.721712 0.0829605 0.034165 0.753601 0.121489 0.0767154 0.717975 0.0495382 0.119047 
0.783946 0.0581126 0.126403 0.723536 0.0412719 0.262519 0.735512 0.105011 0.243257 
0.707649 0.241711 0.0350579 0.750642 0.181326 0.039198 0.768319 0.265952 0.030451 
0.736356 0.178574 0.11055 0.727449 0.156457 0.172503 0.756222 0.166997 0.263419 
0.773883 0.229666 0.154996 0.769771 0.242317 0.26271 0.731805 0.209368 0.212748 
0.70332 0.391051 0.0363922 0.765642 0.32775 0.0314117 0.720854 0.33333 0.103399 
0.747528 0.251601 0.09251 0.733355 0.41805 0.0925398 0.764756 0.3735 0.127576 
0.703875 0.387237 0.141083 0.748172 0.319661 0.263464 0.733723 0.281223 0.197207 
0.697097 0.420409 0.260498 0.726224 0.512597 0.0875616 0.751806 0.463446 0.0378122 
0.79676 0.483683 0.0865449 0.755138 0.468677 0.135701 0.790444 0.418942 0.170728 
0.675483 0.492831 0.266648 0.804248 0.511746 0.26417 0.77323 0.399585 0.260576 
0.741296 0.480711 0.246087 0.718343 0.547736 0.263651 0.670063 0.598259 0.0391222 
0.693757 0.664387 0.0315316 0.737694 0.532263 0.176059 0.76157 0.580384 0.122072 
0.679005 0.613078 0.267401 0.753064 0.585152 0.216456 0.743568 0.621478 0.267462 
0.673473 0.723929 0.0318918 0.74777 0.747555 0.111948 0.758016 0.691223 0.0385273 
0.728073 0.754536 0.0312103 0.748009 0.654931 0.0972004 0.740289 0.692513 0.261125 
0.688483 0.815761 0.208825 0.727424 0.691278 0.147144 0.751777 0.744363 0.178755 
0.694431 0.743853 0.269539 0.702132 0.933146 0.0399805 0.717643 0.852142 0.0346093 
0.681693 0.8238 0.0843728 0.694289 0.887053 0.0952365 0.74005 0.809176 0.159389 
0.738408 0.836985 0.260085 0.733379 0.773948 0.229898 0.681202 0.884983 0.265523 
0.712583 0.876829 0.207483 0.688091 0.950099 0.268912 0.71777 1.01929 0.0398209 
0.725795 1.06782 0.0895046 0.728301 0.95087 0.107487 0.689493 0.945764 0.205802 
0.672091 0.975031 0.138885 0.69285 0.917254 0.150235 0.730976 1.00814 0.154952 
[...]
POINT_DATA 1274
FIELD FieldData 10
VELOCITY 3 1274 double
0.00063564528799 -0.0012954161336 -0.00010256691089 0.00031540434911 -0.00058940069073 -0.00050056933531 0.00055858287152 -0.0013686261743 -2.8017899195e-06 
0.00041791575184 -0.00071221184818 -0.00022755230601 0.00018385102453 -0.00065761387836 -0.0001067261689 0.00046050514223 -0.000870118435 0.00092720105721 
0.00033265761452 -0.0011985216869 -0.00040553057961 0.00061792934863 -0.0010792095925 -0.00013178036714 0.00061839336756 -0.0014622414742 7.7503711835e-05 
0.00020174053819 -0.00050625070601 0.00053832513564 0.00062797329534 -0.0015354682734 -0.001483918358 0.00050035691132 -0.0012689650018 8.6127568685e-06 
0.00061507900885 -0.0015437341793 1.7778374875e-05 0.00056750722688 -0.0012786632685 0.00027510226311 0.00024226099038 -0.00068469249899 -1.9804072751e-05 
0.00043178248515 -0.00099020832512 -0.00015802276702 0.00043657580817 -0.001061598461 -3.8156506576e-05 0.00052170743097 -0.0012994255507 2.4533831557e-05 
0.00064747682412 -0.0008576371367 -8.2512483248e-05 0.00047184291828 -0.00081486618637 -0.00012130135194 0.00046741594359 -0.0010780135606 2.9568322788e-06 
0.00016538168728 -0.00099178472162 0.0001585693556 0.0002441394333 -0.00055776498486 -0.00016960806506 0.00025916991224 -0.00067383436396 -0.00011092075692 
0.00055427731951 -0.0013492159163 0.00038194853792 0.00039537470949 -0.00073490401068 0.00016683508154 0.00021999658899 -0.00057734724451 3.43513717e-05 
0.00048319930468 -0.001172758599 5.4792765498e-06 0.00044857722104 -0.00093582025165 -0.00088811157854 0.00029690316048 -0.00064289502872 -0.0006095356682 
5.5420545199e-05 -0.0012882665229 1.1568108611e-05 0.00026153620358 -0.00080990082526 -3.9174901397e-05 0.00034970990841 -0.00083839794112 -0.00014712280485 
0.00030683233257 -0.00095407824512 -0.00022499668137 0.00068263633433 -0.0010056972354 9.9465913745e-05 0.00031389439422 -0.00069323644882 -9.1750931953e-05 
0.0003971597996 -0.00088430099579 -0.00018942651571 0.00036378504396 -0.0008046241792 -0.00026491442265 0.00016641464824 -0.00080371767612 -0.00016845266054 
0.00011363012858 -0.00030168637519 -2.3364124297e-06 0.00057211838336 -0.0011364601846 -0.00022913474627 0.00016835199553 -0.00073158067085 4.4741448899e-05 
0.00027845304845 -0.0007132340353 -0.00011359633198 -4.1088727817e-05 -0.00055523758935 -6.4693246259e-06 0.00029623622746 -0.00074749740636 -0.00030374366348 
0.00067360408377 -0.0012046677015 -7.9671090132e-06 0.00014111699532 -0.00035321985625 -2.2244958899e-05 0.00030603829333 -0.00074858097081 -0.00030554207734 
-0.00012732120252 0.00078652319969 -4.2166858403e-05 0.00087795627863 -0.00027311275089 0.00028953698411 -3.3682995351e-05 -0.00048974179586 0.00031584851214 
0.00015029279745 -0.00025249698949 0.00064094836347 7.4035688193e-05 -0.0013119756773 -0.0014688079832 0.00020590692481 -0.00056148431522 0.0004111049442 
8.5587857246e-05 -0.00056049422331 -0.00011533173603 0.00086689277316 -0.0012632005557 -0.00072471019398 0.00011490401221 -0.0002409701941 2.0566120299e-06 
0.0001479779721 -0.00044060574911 -0.00044834589785 0.00056230438051 -0.0013825865789 -0.0010018890103 -0.0017295004228 -0.001806760272 -0.0019697415701 
-0.00010499087115 -0.0008828736678 0.00044505545861 0.00095247084091 0.00032978022511 0.00018436783761 0.00021691171772 -0.00088669387714 -1.7761828937e-05 
0.00039942570029 -0.00055662893745 -0.00018297234536 0.0002220615888 -0.0015032176836 -3.5701354965e-06 -2.4841276913e-05 7.4544173199e-05 0.00034419429272 
0.00015625505016 -0.00049920868797 0.00025897762084 0.00042600439078 -0.0007252761859 0.00010395435053 0.00042590334307 -0.00071381829966 0.00018355691536 
-0.00026621491034 -0.0014052606487 -9.656318762e-05 0.00030168515159 -0.00057815049125 -0.00033921492235 0.0002874478328 -0.0011428346363 8.5370759258e-05 
0.00013323142357 -0.00058784923 -8.2531631517e-05 7.7142932278e-05 -0.00030460670502 -0.0012455177827 2.2641500197e-05 -0.0009989990613 2.6473969283e-06 
0.00095961363261 -0.0015297815626 0.00080754304393 0.00088900572372 -0.00095953803164 -2.0418210554e-05 0.00056429082339 -0.0010351106766 9.5554392348e-05 
0.00065174878234 -0.0010426867423 0.00048236271452 0.00054175788422 -0.00075246005065 0.00024253465863 0.00042863875857 -0.0010568053089 -1.8118180604e-05 
0.00018234194891 -0.00071640125173 -0.00027913583951 0.00056612933307 -0.00091892557031 0.00021807818116 0.00054250955902 -0.0015490135468 0.00011222729243 
0.0004111758092 -0.0011482568948 0.00044374888795 0.00036516044026 -0.00089786826935 0.00023944116933 0.00043579023475 -0.00087618163459 -9.2442502639e-06 
0.00030467746538 -0.0010559734621 -0.00028530164575 1.2196382407e-05 -0.0010229707399 9.0789848218e-05 0.00018909886397 -0.00097016014869 -1.2026432739e-06 
0.00078419916581 -0.0011735059667 -0.00045198043743 -0.00068580056983 -0.00079559802936 -3.0823211269e-05 0.00012818161793 -0.0012366324283 0.00011626446926 
0.0004793805736 -0.00071985511218 -6.2632208855e-05 0.00038101983333 -0.0008901945226 6.0791058841e-05 3.9682133776e-05 -0.0011098304331 4.3078000446e-05 
0.00022568324853 -0.0011177585176 0.00034696976611 0.0008663696557 -0.00097541995352 0.00021874771802 0.00056839325812 -0.00067714860238 0.00031258648632 
-2.107832546e-05 -0.0010540269503 0.00074091616615 0.00023322887836 -0.00076887948965 -0.00017916623945 0.00021520955056 -0.001261946636 6.3879983989e-06 
0.0010630713289 -0.0018515557466 -7.6644486841e-06 0.00030279176876 -0.0012008906238 4.8914703793e-05 0.00026782679285 -0.001199167782 -0.00010563271665 
-5.7497319486e-06 -0.0007990996753 -6.869669589e-05 0.00011483540644 -0.00087677075067 6.9260248997e-05 0.00027047774615 -0.00077128323046 -4.5071754893e-05 
0.00024058103464 -0.00073311720148 -1.4178901067e-05 0.00014916615617 -0.0008716227041 0.00031920067479 1.460325883e-06 -0.0011967088123 0.00035562336405 
0.00063611207496 -0.0011573679921 3.5545634874e-05 -6.7319086704e-05 -0.00068403571772 -0.00036268141306 0.00035230215108 -0.00077812132295 4.1205866829e-05 
-0.00016061142724 -0.00089767491257 -2.1949351184e-05 0.0007204933409 -0.00085169688424 0.00022406662449 5.9270243218e-05 -0.0013489600636 0.00014123408933 
-4.2870380244e-05 -0.00095654343357 7.0556041936e-05 0.00028285225034 -0.00095794129362 -2.7540409833e-05 5.3906309049e-05 -0.0010220634799 8.8513239867e-05 
-0.00019131052094 -0.00090217655918 -7.5539130565e-06 0.00016701684975 -0.00063715493717 6.1491635968e-05 0.00028085545513 -0.00088746821054 0.00057804566429 
0.00072808411002 -0.0010516284024 2.8428785144e-06 0.00044933432974 -0.00086037297692 -0.00021947619375 7.9324362494e-05 -0.00078758875326 -0.00038825911002 
-3.2278637161e-05 -0.0008626923274 -1.5390287268e-05 -8.3175905552e-06 -0.00098531062347 4.1705905291e-05 0.00029352863439 -0.00081292976842 0.00064801213741 
0.00010079147006 -0.00085935808968 -8.1230723742e-06 0.00025657497896 -0.00057214590264 -1.4031742566e-05 0.00032141599899 -0.00075261073478 -3.6574820904e-05 
0.00036637086136 -0.00083881896582 -0.00015539368504 -3.7115715943e-05 -0.00075704968352 -0.00010799214118 0.00047235641762 -0.001166646943 9.6355318843e-05 
0.00047064668184 -0.0017265850994 0.00018811068717 -0.00021033144425 0.00022152546197 0.00037930750576 -8.0192507355e-05 0.00043022058231 2.4290015867e-06 
-0.00015592081808 -8.527422249e-05 0.00062512311502 -0.00068005084532 -1.3452390983e-05 -0.00010444408511 0.0001509579618 0.00047772051642 0.00088290289696 
-0.00011716187053 0.00030996601007 0.00037185078386 0.00020938039306 -0.00032026646946 0.0010191731079 -0.0016852354271 -0.0023273441382 0.0001272698701 
0.0005208478208 -0.00026050337431 -0.00028017794497 -0.00033326150782 -0.0005454162078 0.00010984765071 0.00060285658528 -0.0011011998708 6.9202521074e-05 
-0.00024844911997 0.00068054648562 0.00019407375531 0.00040019470531 -0.00040599825997 0.00096231778813 0.0001022779683 -0.00043703593015 -0.00079289043335 
0.00062168918566 -0.00078488478224 1.4952712524e-05 0.00078603212508 -0.00039972785019 -0.00073514846895 -4.1314764076e-05 -0.00069315333551 -3.4243182314e-05 
0.00074304829768 -0.00059794031035 0.00097458538747 0.00042326324454 -0.0009030011164 -0.00013920307457 0.00014122171955 0.00027324290725 -7.4119569742e-05 
-0.00011688005258 -0.00082890385363 -5.3897247037e-05 -0.00015515766791 -0.0010019093595 -0.00015927958538 -9.5921323021e-05 -0.00075917353607 0.00018139091392 
0.00083524859544 -0.00089496919845 0.00021287997764 0.00086359186803 -0.0014083238958 0.00018349189902 0.00023263674009 -0.0008905876323 0.00011229292557 
0.00050002926746 -0.00087008740964 0.00090207458383 0.00085892460397 -0.00088114739952 0.00025383512891 -0.00036509167969 -0.00042498236908 -7.9248632929e-05 
-0.0012806856138 0.00025101922552 -0.00016750862084 0.00016601575882 -0.00025144810927 -0.00037758013815 8.9863349613e-05 -0.0011757969085 1.0062582756e-05 
0.00041141130986 -0.0016033383051 -1.8153357499e-06 -0.00075801143542 -0.00060024145915 -0.00010046316728 6.2920224886e-05 -0.00087968525268 -1.8764571904e-05 
-0.00022255143914 -0.00028286917611 2.4150234759e-05 6.1656650364e-06 -0.00081828238981 0.00058163241666 0.00024463028199 -0.00090050082805 0.00059996309308 
-0.00016018180337 -0.0013192497408 -0.00031323855891 0.00045278682848 -0.00092439592933 -0.00063183531797 0.0003469002862 -0.0015718267169 -0.00022188027328 
-0.00013014800514 -0.0010389269923 7.5427434485e-05 0.00019035563803 -0.00074092489676 -3.649187812e-05 0.00024627886481 -0.00088147663585 -3.9371042225e-05 
0.0002775108305 -0.00089718073317 0.00014595808934 0.00033163192669 -0.00092932313184 -0.00033984992228 0.00064541365468 -0.0015820834647 -0.00084444742263 
0.00065939447892 -0.001009361203 5.1776392266e-05 0.00020607597698 -0.0014733686763 -0.0010329340525 -0.00012964275741 -0.00096952148061 0.00073425679264 
0.0004515671365 -0.00073414410158 0.0002535746456 0.00042267839396 -0.00068070456976 -9.6961051266e-05 0.00045452557124 -0.001161254872 -7.839626628e-05 
6.486253106e-05 -0.00066193464726 6.0838230844e-05 0.00027041246012 -0.0010333668688 -0.00014036008243 -2.1620957465e-05 -0.0007064110908 1.0499272559e-05 
0.00027455414973 -0.00081725348912 2.173754357e-05 0.00017785203525 -0.001248232492 3.5659063521e-05 0.00020089214222 -0.00077616165211 -0.00019229427846 
-0.00010934305428 -0.00074956748709 -9.9147779007e-05 -0.00020338865512 -0.00086188629075 1.1645214772e-05 7.0545199162e-06 -0.00087458022141 -0.00012148653528 
0.00030067913366 -0.00063004607561 -8.5531111534e-05 0.00028180568745 -0.00096379781961 -4.2613585319e-06 0.0003839575458 -0.00084486999478 -0.00058254551573 
-0.00014269589474 -0.0014528026256 0.00042989491924 0.00029779249891 -0.00080775850682 4.9020384426e-05 4.498451023e-05 -0.00089546898614 -7.4256163694e-05 
-1.9724110415e-05 -0.00053478419672 0.00018840089025 0.00014708800022 -0.0014042508851 -0.00062549737922 -1.9966288326e-05 -0.00083537631232 0.00018805548112 
-3.6412962245e-05 -0.0011791682285 -2.6082032489e-05 0.00036882354521 -0.00099088241657 -0.00037988558287 0.00046702317589 -0.00096733138909 -0.00031164205974 
0.00040417311548 -0.00087941826222 0.00013278398674 -0.00028806585033 -0.0011459420157 -8.4432408477e-05 -0.0002580283651 -0.0013029278506 -1.7902558236e-05 
-0.00012536925783 -0.0013795939228 -9.838534076e-05 -3.6599450387e-05 0.00013175242345 -0.00025874661563 6.8969542109e-05 -0.00025589819133 0.00070582178386 
-0.00011813408882 0.00011500084395 0.001141770619 4.3879401594e-05 -0.00055218075361 -0.00029550811922 9.2730996933e-06 6.4650136537e-05 0.0010265623977 
-0.00039533682049 -0.00046204189001 -3.4418558651e-05 -6.2288197987e-05 -0.00031277431361 -0.00042580192775 -0.00024897969417 0.0009510992399 0.00038285797719 
0.00017860194045 -0.00058351157103 -0.00063190172189 -0.00011657271355 -0.00069150513846 -0.00083951820585 -0.0002093284663 -0.00047239666195 -6.0883708691e-05 
0.00096470722772 -0.00027279603896 0.0001151608886 -0.00044887136358 -0.00068033582742 0.00046374436648 -0.0013532152153 -0.00066553918975 -0.00053657787696 
-0.0027193219357 -0.0010601232723 -0.00031616230533 0.00020910142246 -0.0015122263572 -3.2889444678e-05 -0.00086388717225 -0.00034842652626 -0.00063298486234 
0.00043964225002 -0.0016305161546 -0.00011732621849 0.00074375936962 0.00024276626579 7.1175870154e-05 0.00039192203661 4.2218541348e-05 0.00015423794783 
0.00064273017149 0.0016101120786 0.00097640965077 0.00054325671945 -0.0010651779267 0.00021460347575 -0.0020531756936 -0.00088490432159 -0.00012247688899 
0.00018887572505 0.00019798357739 0.00011760361178 0.0005635646177 0.00024803876259 9.7813446065e-05 0.00045648735399 -0.0013333073709 0.0003475269544 
0.00054535654236 -0.00067005328271 0.00011468331977 0.00087734652375 -0.0012014755966 1.7493169321e-06 0.00034477055401 -0.00079743980334 0.00010333073759 
0.00035004558351 -0.00071534801672 0.00052814363898 0.00049418895093 -0.00031485803024 0.00015788717774 0.0012390660623 -0.0011098382067 3.5022159726e-06 
0.0010907324777 -0.0011181704576 -0.00017322841816 0.00015090358501 -0.0017705744948 0.00090277289305 0.00041709517799 -0.0016978049634 -0.00048124750807 
0.00031879397244 -0.0010890506469 0.0010315494799 -0.00037677904192 -0.00044298560768 -0.00011351720945 0.00050109999874 -0.0013239074809 -0.00046482505612 
0.00062485192861 -0.00057772971238 0.00073020251018 0.00050532132803 -0.0010982097587 0.00051363474266 0.00018600487158 -0.0010821917199 -1.7537957633e-05 
0.00019547023409 -0.0017083992102 9.25859859e-06 -4.5008159574e-05 -0.0016531464331 0.00059897696729 0.00010755775501 -8.9768071177e-05 -0.00014421674611 
0.00065725998406 -0.0019555649178 0.00018730727056 0.000250103401 -0.00056349143641 1.1959452361e-05 -0.00016447361864 -0.0016315959728 1.5475284446e-05 
-0.00015920711924 -0.0010629906277 0.00076648535919 3.2219318826e-05 -0.0010447078247 0.00010253969391 -0.0001262800483 -0.00077112778022 -0.00016379161135 
0.00049747230901 -0.00073704640929 2.2987572129e-05 0.00036370405454 -0.00087293396455 -0.00022776682133 3.4888815919e-05 -0.0013363700958 -0.00025065377649 
0.00020163328288 -0.00082011474312 -1.3295823864e-05 0.00045673624204 -0.0010349998884 5.8872039411e-05 0.00060829486964 -0.0011232651746 -0.00015041263824 
0.0001116151092 -0.0010841150985 -0.00021372341913 -0.00013689839627 -0.001377121202 1.7547596942e-06 -0.00033134925568 -0.00083645370742 -9.2809574552e-05 
0.00055325943685 -0.00055710260033 -1.5803861229e-05 0.00021272831296 -0.00108043956 -0.00055581704666 0.00027094184557 -0.0010749580549 -6.8080978266e-05 
0.00026454507281 -0.0007754550739 -0.00018134765153 0.00075134615448 -0.0010489603528 -4.5508416122e-05 3.6131019522e-05 -0.00081866830383 -4.4550765477e-05 
0.00043967527256 -0.00092509414784 -8.0787444391e-05 -3.0532933691e-05 -0.0011270541791 0.00024602915568 2.5453529648e-05 -0.0010962048709 -0.00028605407606 
7.5776259741e-05 -0.00083815385715 -0.00022740416082 0.00021478772336 -0.00091056149249 -0.00017839816929 0.00024089313253 -0.0011724560488 4.5345850935e-05 
7.1929463396e-06 -0.0007613687406 2.6500311066e-05 -0.00025889923971 -0.0015093643135 -0.00061413023489 0.00013440937476 -0.0010515745358 7.3612864219e-05 
0.00040003899523 -0.0010952445201 -5.1329752191e-05 0.00028486002384 -0.00085836945093 -3.8920568718e-05 0.00017446065942 -0.00089761217394 1.6208801864e-05 
-8.3685237408e-05 -0.00105827033 3.4890471052e-06 0.00058458078688 -0.0014618359226 -1.5355096278e-05 0.00069272288207 -0.0015586806274 0.00029555685507 
0.0005415017542 -0.00079755544719 -5.8012493312e-06 -0.00024018160651 -0.0013272276041 5.1236749882e-05 -2.8818025402e-05 -0.0008029163378 0.00017734367073 
0.00034977250784 0.00039013910137 -5.9152942422e-06 0.00024753506656 -0.0007029361491 0.00066051830635 2.8704532079e-05 -0.00039903122928 0.00093381005942 
-0.00062593926865 -0.0011184639898 0.00091394921688 0.00020008651733 -0.00041807421686 5.217091247e-05 0.0007090569062 0.00047925841522 0.00070999477143 
0.00045927158736 -0.0001651452304 0.0016540437714 -0.00086535659991 -0.0011725403381 -0.00044870247621 0.00019292296992 0.0016772408538 -0.0010848942202 
-2.8085855419e-05 -0.00031188807319 0.0011360284274 -0.0007335786259 0.00024970696605 -0.00074947655556 -1.3074212626e-05 -0.00041087400693 6.1873810767e-05 
-0.00012202506193 -0.0002541127834 -0.00021572822091 0.00019984658288 -0.00072436377374 0.00067717830396 0.00029436655929 -0.00026995466855 -1.4165848715e-05 
0.00095111208049 -0.0002039851384 9.9259949222e-05 0.00107621795 0.00017400224941 0.00050119174721 0.00066805023591 -0.00023840864974 0.00011203703965 
6.0074502285e-05 -0.00036783376146 -0.00012965390015 0.0010319889925 -0.00088795309173 -7.5522690108e-05 0.0003967483722 -0.00043994648382 0.0010981799248 
0.00019305580105 1.8526347939e-05 0.00029529229127 0.00024652676503 -0.00055469096667 3.6033299105e-05 -0.00047319992068 -0.0002269819246 0.0010598936576 
-0.00024760058888 0.00072038601243 0.00016952331176 -0.0011750402491 -0.0011888814051 0.0011650365993 -0.0013205550725 -0.00023076479394 7.9862378496e-05 
-0.0017025400764 -0.00034682856194 -0.00042019749901 3.9539918198e-05 -0.00045842752289 0.0012844012207 0.00062835037403 -0.00049718964187 0.00026991833494 
0.00073628347387 -0.0002656068919 -2.2511503015e-05 0.00021893606658 -0.00086308652065 0.00052734682389 -0.00010545235504 -0.0013673032025 -0.00027059691066 
0.00067204536031 -0.00017848878869 -0.00073148758581 -0.00014666378295 -0.00073042161655 3.5977611406e-05 0.00041327370229 -0.00046343654233 3.7550769605e-05 
-0.0004793597117 -0.00020767403919 3.7645840578e-05 0.00067097141287 -0.0011585912833 0.00070356903576 0.00015629202826 -0.00038109760804 0.0010141241306 
-0.00014307682577 -0.00057408719741 4.4881142528e-05 0.00028208885117 -0.00035211086048 -8.2339150391e-05 -0.00015122291186 -0.00082709377282 -0.00056174540644 
6.2809207131e-05 -0.00035589815455 -0.00072358961187 -0.00012228919545 -0.0012533322634 -0.00026254759313 -0.00050039573554 -0.0010068609897 -1.9765635002e-05 
0.00038391187833 0.0004004154737 -2.9165155462e-05 -0.00069523993314 -0.0010300103175 0.00014713892822 0.00012355924411 -0.0003606218303 0.00014662336978 
0.0003433453096 -0.00041572280762 9.6025438614e-05 0.00050334729053 -0.00097019831671 0.00068744975346 -6.5342734583e-05 -0.00069877155332 -0.00022022044352 
0.00031009570544 -0.00063650060765 8.9865878361e-06 0.00012442525034 -0.00090839196178 -2.9260765737e-05 0.00014404189404 -0.0010857149934 8.6574015701e-05 
0.0001425555426 -0.00097808796111 2.1707339289e-05 -0.00018786632589 -0.00092987188924 -0.00020124576379 0.00090265337261 -0.00095822328 -0.00077210191572 
0.00073642164836 -0.00214361445 4.8154428349e-05 -0.00084765517083 -0.0020252259307 0.00039993920609 -7.251580414e-05 -0.00081226034713 0.00042548401309 
0.00050854423154 -0.0010398570051 0.00089634893268 0.0002295968509 -0.00099378151085 -3.2945810159e-05 0.00015068775387 -0.0013041224713 6.3590192324e-06 
0.0002356199772 -0.0011117119377 -0.00020158081417 0.00053224360867 -0.0014152855126 -7.687163313e-05 0.00013501467048 -0.0014825622637 -2.3645837588e-06 
0.00020726576899 -0.00079686212477 -0.00025936486048 -0.00021819438505 -0.00079592641386 -0.00030243638788 0.00024603015464 -0.00083349516393 -2.705108103e-05 
0.00037710069183 -0.00099436322052 6.424123254e-06 0.00029016670871 -0.001483080257 -3.4546605442e-06 -7.4116040876e-05 -0.001241192878 -0.0002159016309 
0.00030288826501 -0.0009644260095 5.1639075786e-05 0.0006542822528 -0.0013710211027 -1.6981851953e-05 0.00032729519503 -0.0015026385406 0.00013181678447 
0.00011257266512 -0.0017255530929 3.652920615e-05 0.00055271172589 -0.0008288112121 -9.6221420556e-05 9.5946480105e-05 -0.001120324427 -0.00024999497086 
-0.00029821921005 -0.0014901509639 9.3164557048e-06 0.00040338717701 -0.0011500787161 -0.00018255529576 0.00020731415771 -0.0011212763576 0.00023393798051 
-2.8158982124e-05 -0.001360262328 -2.4742181911e-05 2.6736960833e-05 -0.0008741422948 -0.0003931931433 -0.00011913587067 -0.00096991660814 -4.9548560227e-06 