# vtk DataFile Version 4.1
vtk output
ASCII
DATASET UNSTRUCTURED_GRID
POINTS 1274 float
0.512102 0.555992 0.0379507 0.469035 0.652367 0.105447 0.487241 0.599542 0.268458 
0.494276 0.588701 0.0994365 0.423092 0.757358 0.0323135 0.424015 0.76952 0.119106 
0.475153 0.638424 0.213099 0.459789 0.671659 0.268648 0.393054 0.847231 0.059453 
0.397931 0.813906 0.164109 0.445192 0.701084 0.215256 0.431995 0.740793 0.265756 
0.362101 0.90458 0.0319702 0.342884 0.970315 0.0514561 0.380762 0.87978 0.146327 
0.394155 0.845976 0.231906 0.344651 0.959239 0.260007 0.313132 1.04123 0.0387198 
0.389198 0.915829 0.0868591 0.446742 0.900232 0.1102 0.331511 0.997954 0.129731 
0.408636 0.916639 0.21836 0.309914 1.03895 0.265122 0.351531 0.930651 0.187905 
0.28069 1.10408 0.0482755 0.327527 0.988904 0.200392 0.286099 1.10946 0.260298 
0.256977 1.16433 0.0336643 0.35612 1.11767 0.105323 0.301306 1.07031 0.109668 
0.28951 1.25414 0.0382188 0.302376 1.04657 0.200316 0.283011 1.10184 0.17269 
0.332405 1.25741 0.0930213 0.383639 1.15977 0.0370456 0.275031 1.14972 0.110594 
0.420667 1.15173 0.106653 0.260152 1.15185 0.208823 0.339802 1.10846 0.211502 
0.218312 1.25705 0.0332147 0.318982 1.18807 0.0547026 0.319274 1.1582 0.173816 
0.24419 1.20037 0.164831 0.287568 1.18417 0.26484 0.238533 1.22343 0.0939819 
0.370845 1.23369 0.0356631 0.236206 1.23106 0.236688 0.215166 1.25801 0.149915 
0.540256 0.471678 0.0302101 0.611414 0.295941 0.0941551 0.595208 0.359542 0.120606 
0.596716 0.348085 0.196756 0.575852 0.389472 0.266499 0.609695 0.315351 0.261395 
0.540334 0.470892 0.209956 0.508255 0.558959 0.219374 0.60325 0.329248 0.0358989 
0.566479 0.417995 0.159175 0.483167 0.626081 0.039119 0.610098 0.477132 0.0481151 
0.545667 0.475745 0.0985219 0.549294 0.448806 0.268473 0.564856 0.573315 0.262776 
0.52709 0.513246 0.159509 0.549929 0.669956 0.0308575 0.44497 0.712493 0.078164 
0.517295 0.698818 0.105792 0.470806 0.754976 0.178162 0.550516 0.548933 0.100687 
0.523384 0.660121 0.266703 0.445903 0.69802 0.14654 0.414219 0.779347 0.214279 
0.500752 0.682428 0.170666 0.553738 0.578374 0.168506 0.493624 0.782225 0.0917474 
0.534666 0.762383 0.146129 0.457647 0.816571 0.0363743 0.508176 0.726188 0.0397535 
0.483935 0.819387 0.1507 0.435968 0.836967 0.113409 0.363844 0.895877 0.269731 
0.498792 0.770929 0.260787 0.538496 0.619108 0.21911 0.562836 0.749167 0.22035 
0.46732 0.817195 0.213532 0.506038 0.707776 0.227136 0.459768 0.891236 0.0402134 
0.520444 0.855854 0.0357533 0.534985 0.793028 0.0326223 0.45421 0.877511 0.177803 
0.494231 0.851941 0.0956901 0.465595 0.87167 0.260665 0.438181 0.805656 0.269011 
0.416201 0.953186 0.0373632 0.373272 1.09134 0.0325886 0.465299 1.00615 0.0331279 
0.399746 0.998716 0.094531 0.414561 0.949793 0.150245 0.467204 0.965523 0.0911279 
0.485434 0.942726 0.261297 0.419531 0.974038 0.26148 0.534803 0.985271 0.2689 
0.458903 0.954676 0.202879 0.383169 1.02639 0.0323973 0.365211 1.05699 0.0852816 
0.463309 1.0335 0.0904101 0.362369 1.0645 0.158538 0.395005 1.00604 0.196914 
0.441331 1.05223 0.264238 0.376715 1.0304 0.267442 0.483396 1.00544 0.235744 
0.455741 1.13807 0.0385396 0.470253 1.08451 0.123175 0.426857 1.04354 0.13882 
0.361187 1.0918 0.269156 0.524796 1.18087 0.176429 0.490187 1.10436 0.267885 
0.40796 1.08958 0.213095 0.429609 1.1348 0.26422 0.445214 1.12213 0.166681 
0.359083 1.16191 0.260112 0.510127 1.18862 0.0381546 0.497714 1.14849 0.1203 
0.435739 1.20787 0.0341937 0.368971 1.2036 0.101368 0.38091 1.13477 0.166378 
0.33897 1.23824 0.260952 0.452868 1.16935 0.207636 0.401952 1.20821 0.220834 
0.469364 1.19197 0.266121 0.486583 1.25661 0.0362705 0.312038 1.21388 0.137412 
0.45976 1.25057 0.226572 0.300141 1.21436 0.204128 0.473089 1.21433 0.169824 
0.37236 1.23138 0.163568 0.63964 0.231389 0.178773 0.56438 0.412177 0.0315354 
0.659972 0.193096 0.0556547 0.661409 0.287413 0.212694 0.639916 0.241718 0.26351 
0.668968 0.174391 0.206863 0.642871 0.223117 0.114965 0.631955 0.407504 0.036342 
0.592576 0.424222 0.0894753 0.526755 0.510448 0.265844 0.604618 0.488477 0.262791 
0.617389 0.291078 0.158903 0.638832 0.377783 0.245511 0.613682 0.4609 0.137057 
0.587125 0.547812 0.0375171 0.660417 0.424367 0.101948 0.533659 0.637344 0.132169 
0.60381 0.529359 0.146528 0.574827 0.525882 0.211575 0.592057 0.434149 0.220472 
0.613277 0.625038 0.266297 0.603481 0.719616 0.0390313 0.555168 0.611314 0.0648592 
0.568807 0.735647 0.0984263 0.566001 0.69935 0.157295 0.599725 0.711212 0.268228 
0.590533 0.635535 0.17418 0.64304 0.642355 0.210824 0.572097 0.673154 0.224357 
0.59639 0.76012 0.15993 0.586591 0.667253 0.0961265 0.639502 0.78888 0.0390289 
0.56127 0.798176 0.0908252 0.541984 0.815192 0.18984 0.545024 0.832977 0.261832 
0.615824 0.775701 0.265249 0.51621 0.874412 0.210371 0.625061 0.710306 0.200551 
0.600496 0.823148 0.221656 0.584797 0.838291 0.0357805 0.560653 0.862514 0.0931437 
0.565505 0.911416 0.0397007 0.503324 0.945309 0.0315428 0.551998 0.910382 0.260437 
0.597989 0.968147 0.265549 0.528148 0.863786 0.146539 0.505625 0.925161 0.173321 
0.534793 1.00491 0.0510597 0.522371 0.918019 0.107094 0.473545 1.06036 0.18897 
0.467879 0.996627 0.154753 0.536894 0.989718 0.138567 0.517938 1.04788 0.269179 
0.571031 0.945749 0.192516 0.436243 1.0675 0.0347795 0.539647 1.12611 0.0335715 
0.573004 1.06602 0.0351735 0.503863 1.06676 0.0328709 0.552138 1.10844 0.0954355 
0.522723 1.05103 0.104834 0.543317 1.00963 0.20936 0.502678 1.12657 0.205532 
0.537939 1.23501 0.0889796 0.573655 1.21214 0.0322876 0.562965 1.17798 0.123384 
0.523053 1.09272 0.152401 0.604468 1.0882 0.268671 0.539325 1.23905 0.159037 
0.533955 1.21344 0.238215 0.565672 1.1318 0.180571 0.557888 1.07414 0.21432 
0.553833 1.13835 0.259421 0.639217 1.20796 0.0432648 0.621313 1.21062 0.110618 
0.464161 1.21601 0.100675 0.645265 1.23777 0.223684 0.594911 1.20025 0.186377 
0.758432 1.18664 0.207923 0.679029 0.130769 0.0405973 0.693368 0.119374 0.112677 
0.721563 0.0322006 0.192904 0.681969 0.134361 0.265517 0.698063 0.0939729 0.181288 
0.636958 0.262709 0.0387343 0.694921 0.315693 0.0396736 0.702597 0.225185 0.149527 
0.70416 0.266967 0.267353 0.640328 0.406728 0.174666 0.694886 0.200122 0.267451 
0.678289 0.327644 0.2667 0.662489 0.336725 0.137835 0.680461 0.459182 0.0423389 
0.659074 0.495542 0.0972517 0.652337 0.357935 0.0777932 0.685862 0.467339 0.158382 
0.648978 0.462479 0.216795 0.681106 0.27882 0.104571 0.730559 0.432678 0.199201 
0.690635 0.353868 0.2012 0.611284 0.645929 0.0351644 0.66201 0.525986 0.0349396 
0.635069 0.558472 0.0889996 0.595174 0.600238 0.120088 0.647804 0.608381 0.156576 
0.6637 0.68436 0.262136 0.63782 0.547144 0.269081 0.686768 0.583019 0.207126 
0.616695 0.579109 0.208346 0.672264 0.547879 0.149927 0.677234 0.516864 0.206223 
0.628344 0.716153 0.122518 0.657994 0.656012 0.0912012 0.696887 0.57315 0.0972089 
0.708219 0.628329 0.138307 0.717179 0.647818 0.20696 0.660727 0.824014 0.268702 
0.664765 0.672779 0.159346 0.623894 0.803288 0.116809 0.647265 0.87756 0.0390991 
0.689811 0.762484 0.0796129 0.707904 0.703723 0.0845855 0.679962 0.763517 0.14908 
0.636792 0.776546 0.203021 0.696634 0.71623 0.204775 0.613631 0.869614 0.265678 
0.582855 0.872962 0.181691 0.614784 0.970471 0.0372508 0.668632 0.985653 0.0763517 
0.629274 0.869442 0.106045 0.643345 0.927782 0.0888828 0.586816 0.909355 0.126095 
0.609886 0.968345 0.13899 0.634141 0.985493 0.20963 0.67623 0.850328 0.147991 
0.635916 0.923529 0.233775 0.64375 0.866802 0.206987 0.633116 0.917356 0.169157 
0.630442 1.10812 0.0300647 0.641971 1.04098 0.0402642 0.694446 1.09333 0.0358784 
0.574165 0.957752 0.0911555 0.593891 1.02204 0.0955543 0.667474 1.04316 0.115837 
0.577904 1.03129 0.260411 0.613509 1.02636 0.161762 0.671589 1.03227 0.184311 
0.616581 1.09059 0.0912078 0.621612 1.14413 0.138858 0.696835 1.16625 0.037085 
0.596082 1.15507 0.0653808 0.582617 1.07941 0.147017 0.623947 1.05677 0.217108 
0.741273 1.13289 0.0834842 0.635915 1.13354 0.223605 0.660981 1.09334 0.167478 
0.603701 1.19677 0.263609 0.749136 1.2136 0.033559 0.79056 1.18349 0.100822 
0.689413 1.17019 0.106132 0.672493 1.19926 0.16833 0.677306 1.18823 0.260246 
0.722199 0.0831937 0.0341643 0.754137 0.122013 0.0764125 0.718212 0.0489638 0.117434 
0.784013 0.0582993 0.125356 0.723211 0.0420662 0.26252 0.734917 0.105517 0.242171 
0.707765 0.242219 0.0350587 0.751023 0.18202 0.0391982 0.768654 0.265911 0.0304512 
0.737193 0.177649 0.110567 0.728099 0.156683 0.172891 0.755676 0.16739 0.2634 
0.77417 0.230387 0.155912 0.769627 0.24387 0.262063 0.730981 0.210094 0.212586 
0.702943 0.391273 0.0363959 0.764551 0.327627 0.0317435 0.720321 0.333407 0.103203 
0.746874 0.252468 0.0929718 0.732336 0.41904 0.092508 0.764447 0.37423 0.126555 
0.703568 0.387192 0.140809 0.747722 0.32057 0.263464 0.734714 0.282176 0.198429 
0.697022 0.419922 0.260498 0.726572 0.514028 0.0860005 0.752758 0.463658 0.0378108 
0.797307 0.485466 0.0862345 0.754487 0.469296 0.133977 0.789616 0.419945 0.169717 
0.674414 0.494346 0.266635 0.803935 0.51143 0.264172 0.773865 0.401893 0.260577 
0.740341 0.481104 0.247157 0.718063 0.548626 0.263651 0.669199 0.599579 0.0391272 
0.694676 0.665043 0.0315327 0.736695 0.533973 0.174998 0.761022 0.58211 0.121226 
0.678661 0.61406 0.2674 0.752428 0.585403 0.217102 0.743213 0.622565 0.267491 
0.673477 0.724254 0.0329987 0.747669 0.749409 0.111444 0.758529 0.69285 0.0384608 
0.727872 0.755176 0.0312088 0.748806 0.65678 0.096965 0.739931 0.694103 0.261127 
0.687548 0.817772 0.208707 0.72633 0.693152 0.146071 0.751101 0.745508 0.17824 
0.693843 0.745238 0.269539 0.702003 0.934633 0.0399801 0.717002 0.854087 0.0346137 
0.681229 0.82591 0.0846031 0.694026 0.889087 0.0956688 0.739185 0.810492 0.159579 
0.738774 0.839547 0.260086 0.734025 0.777129 0.228609 0.681253 0.886414 0.265524 
0.713084 0.87823 0.206559 0.687854 0.951563 0.268911 0.717676 1.02139 0.0398203 
0.725376 1.06975 0.0897212 0.726922 0.953888 0.10754 0.689457 0.948709 0.205722 
0.67201 0.976238 0.138645 0.693554 0.918926 0.150881 0.730174 1.01015 0.155642 
[...]
POINT_DATA 1274
FIELD FieldData 10
VELOCITY 3 1274 double
0.00027736470739 -0.00066940080035 -0.00034573567953 0.00016456834906 -0.000720627071 0.000403477085 0.00011904186345 -0.00031282193787 -1.3986711206e-06 
0.0004561144707 -0.00031755198456 -0.00034668983419 0.00028142438616 -0.00092351778497 -0.00017798216923 0.0001359941545 -0.00044722638331 9.2575152144e-05 
0.00013551449506 -0.00018041953864 0.0004509913474 -0.00063215259039 -0.00061790989702 -1.8188117065e-05 0.00037789602692 -0.00087024454059 -6.4492931174e-05 
0.00037834171376 -0.00052843149276 0.00031797718375 0.00031758363034 -0.00069309302584 -0.00023251684081 0.00034835252504 -0.00095069944658 -3.9275046677e-05 
0.00033439864368 -0.00085813937916 1.8492876448e-05 0.00043549180109 -0.00099467404668 0.00029141252211 0.00021825845834 -0.0006461879779 -0.00012745498001 
0.00041656006015 -0.00096472171962 4.282091198e-05 0.0004140490303 -0.00098552954619 -2.9347556046e-05 0.00040928878322 -0.0010234347603 3.6227068197e-05 
0.00091577506147 -0.0010652773942 -0.00018262981511 0.00045558973776 -0.00053935339171 -0.00010461798312 0.00033596781497 -0.00084285623649 0.00021413029668 
-5.6239137225e-05 -0.00086645100942 0.00010054740348 0.00022169693634 -0.00052368125431 0.0001811707605 0.00022169460069 -0.00050577289672 -0.00020014850126 
0.00042982153547 -0.0010439371363 0.00014906759543 0.00019624603523 -0.00061591954436 0.00021182601624 0.00021137927304 -0.00051461752684 -2.4600450181e-05 
0.00039452420805 -0.00091218105223 -1.23127286e-05 0.00058066781758 -0.00099716615653 -0.0003076459516 0.00028259548745 -0.00065058022949 -0.00048809057179 
0.00013891298145 -0.0011393674742 9.4795240546e-06 0.00024882550666 -0.00059207336735 -2.5391763007e-05 0.00028225951645 -0.00065083845371 -0.00015427358861 
0.00053851573123 -0.0011129884509 -0.00031812442551 0.00071233007469 -0.00093608078635 0.00023587875478 0.00029545512427 -0.00064741499293 -8.2845493194e-05 
0.00065625863612 -0.00093615703275 -5.6003083515e-05 0.00027084542597 -0.00067097633546 -0.0001487474836 7.1218335076e-05 -0.00085060011722 -0.00013405507091 
0.00018361289933 -0.00045321855359 6.7099213424e-06 0.00052051902996 -0.0010848782408 -0.00031004492052 0.00019304694692 -0.00076036235367 -9.363301591e-05 
0.00024108534878 -0.00066183295652 -0.00015128299887 -0.00012276204296 -0.00052884181324 -2.6450160603e-05 0.00026392436573 -0.0006602137262 -0.00015973252047 
0.00052849611732 -0.00096637181989 1.6783164548e-05 0.00016276898157 -0.00039336749951 -0.00031535677174 0.00028431072009 -0.00066245191318 -0.00015423784666 
-5.2789525552e-05 -0.00077729910595 1.5829950019e-05 0.00063619489657 -0.0009733478401 0.00023953999791 0.00063813179373 -0.00080934409104 0.00054014433165 
-0.00022697412827 0.00021112719593 0.00076121128319 0.0001566008609 0.0011539890646 0.00077667739834 0.00036359069649 -0.0010084792031 0.00032138449478 
0.0001786573722 -0.00033822451204 0.00067406272309 0.00016172630492 -0.00025264636196 8.6717860045e-05 0.00017483484113 -0.00039674421702 -3.2329292609e-06 
0.00023290427205 -0.000483193719 0.00055180526308 0.00030462270483 -0.00082900346298 -8.6682262378e-05 -0.00060957939114 -0.0010764932045 2.2722738323e-05 
0.00034295862351 -0.00050065816296 -4.2966647103e-06 0.00022813653005 -0.00089295212208 -0.0002627372889 1.8660335995e-05 -0.0010444123439 -5.7433111835e-06 
0.00029983689717 -0.00056369257311 -9.0168670942e-05 0.00074188357399 -0.00040478506839 -0.00010048101372 0.00025992437864 -0.0006290762267 0.00043191390817 
5.2675861965e-05 -0.0005117966986 0.00060581235889 0.00071342053034 -0.00065781918853 0.00010373883274 0.0006073895463 -0.00088418827007 -0.00056013613966 
-0.00034893661882 -0.00071992036891 -3.5695104407e-08 0.00018647081524 -0.00058767265389 -0.00057707412995 0.00025426859832 -0.00097036042439 -8.3532034241e-05 
0.00026687112935 -0.00091977585943 -0.0004987978863 -0.00062231382726 -0.000346808506 -0.00080754079989 0.00010293118183 -0.00064106586056 -0.00015083111787 
0.00079979530587 -0.0012408968696 0.00035429026416 0.00047608561972 -0.00092277430131 -4.6579864913e-05 0.00034174565838 -0.0010523701612 5.6032002629e-05 
0.00085781059337 -0.00088674251188 0.00017654489908 0.00094401642095 -0.00060913272579 -0.00029313502447 0.00037506116993 -0.00099687714034 2.1934572343e-05 
0.0002889971473 -0.00074068693643 -0.00010778471437 0.00011719056691 -0.00068382892299 0.0002119968447 0.0004945761048 -0.0011927350444 -3.1328846158e-05 
-2.2530406471e-05 -0.00029469011522 -0.00062191483697 0.00013134128492 -0.00069258429747 9.6080140894e-05 3.410473867e-05 -0.00084949116686 0.00027037999257 
-0.00017681159383 -0.0014062341379 -0.00069609369664 0.00028369605186 -0.001133361922 -5.1002614245e-06 -0.00032126021642 -0.0010143700968 -2.1516321301e-05 
0.00056873456595 -0.00088635210625 -0.00044676195691 -0.00042728718267 -0.000894319586 7.041785123e-06 0.00072628592369 -0.0010244231105 5.657516814e-07 
0.00060900434045 -0.00040028162147 -3.9701895438e-05 0.000104992878 -0.0008370631568 -4.8082280303e-05 0.00042620895978 -0.00033812319978 -0.00011386309713 
0.00048481831989 -0.00074395411493 0.00033490671353 0.00063752534671 -0.00097665053865 0.0004889977514 0.00035336175597 -0.00064017556737 0.00016984133615 
-0.00027027444718 -0.00088961871877 0.00093051873921 -0.00019754142772 -0.0007184131319 0.00010529019091 0.00011546729564 -0.0010346654295 -6.8859956948e-05 
0.0005445010023 -0.0016092354555 0.0002351040639 0.00054996060438 -0.0012187344977 4.3344131626e-05 0.00013904996558 -0.0011483240545 -0.00021000018234 
0.0004196578623 -0.00058739923858 -1.3346718266e-05 0.00026183183736 -0.00069958983124 -0.00014367642058 0.00028712773774 -0.00054216028682 -5.9098016303e-05 
0.00029518318291 -0.00044393900647 3.3217591897e-05 0.00030375129326 -0.00039085515902 4.199896943e-05 -0.00041567625048 -0.0010225462871 0.00057110512845 
0.00072157739064 -0.0008328147173 -1.6444314322e-05 0.00090777139381 -0.00089966964848 0.00042556521788 0.00028878212968 -0.00063053265542 0.0001038179327 
-0.00012319501519 -0.00049862301315 -1.998846289e-05 0.0011855080666 -0.0015734385216 -0.00062154102122 -0.0005044295722 -0.0013674407515 4.0601195235e-05 
-4.9147733368e-05 -0.00062617675763 7.0623526429e-06 1.4015220684e-05 -0.00050016504103 -4.928861018e-05 0.00038347775813 -0.00098747707656 6.2025041037e-05 
-8.5633194559e-05 -0.00051679781382 5.8118239339e-05 0.0011966997371 -0.0012837056014 0.00026278563613 0.0016731366824 -0.0015083412634 -0.0060658525606 
0.00056734633038 -0.00081075537405 -1.6502383159e-05 0.00050504211506 -0.0011284269067 -0.00019065471054 0.0003662868435 -0.00083280150918 0.0014973689018 
-6.795840377e-05 -0.00051764012174 -2.7112851411e-05 0.00043766327452 -0.0009552212499 6.7903117896e-05 0.0004942722623 -0.0009808952377 3.5491127896e-05 
-0.00022253921346 -0.0002989793153 -5.6875712884e-06 0.0010685782919 -0.0013394391011 1.0190030877e-05 0.00039828935279 -0.00077247676617 -4.9041104409e-05 
0.00035643855274 -0.0007506913823 -0.00061403549744 0.00022106266496 -0.00076023549565 -4.0577432926e-05 0.0013417635767 -0.0012138487038 -5.9777426296e-05 
0.00059723637713 -0.0013061118231 -0.00015499713513 4.2542123758e-05 -0.00010656143249 0.00047911468016 -0.00036456517653 0.00083567822975 -0.00024681858041 
-0.00012505803148 -8.3654696409e-05 0.00050986212232 0.00085225356482 -0.00086545459668 -0.00031014392155 0.00010753357537 0.00025080661725 0.00084783572897 
0.00021709791508 -0.00017545679637 0.0001767977016 -3.1542957189e-05 -0.00027389171318 0.0008427332251 -0.00044229292681 -0.0010688630869 9.0089613819e-06 
-0.0010983451998 -0.0015048944755 -0.00015064531977 0.00016214778988 -0.00035186942318 -2.3644295814e-05 0.00067780015468 -0.0010234006961 0.00010062501407 
-0.00018568578066 0.00017324434144 0.0005005262506 0.00028186080214 -0.0012071585981 0.00095045600324 -0.00037024900075 -0.00034342865202 -0.0016295537155 
0.00037422185365 -0.0010112266786 -8.2359370125e-05 -0.0002832800932 -0.00054394143671 -0.00013952778715 0.00032367217433 -0.00061292080358 -0.00036004836163 
0.00078941224466 -0.00063721283515 0.0010328878387 0.00052026174945 -0.00079312770195 -0.00028026535267 0.00071796477504 -0.00083038149546 -0.00043775698614 
0.00029721685742 -0.0011438097339 -1.5460249037e-05 0.00033363784384 -0.00083550209734 0.00012125218455 -2.6157231474e-05 -0.00040805481949 0.00018193840495 
-0.00049213548391 -0.0010954770533 -0.00025262617455 0.0011106997292 -0.0013680401945 0.00044843330859 9.5307771945e-05 -0.00078254273523 -8.0685119138e-05 
0.000856579016 -0.0011230614044 0.0004802265963 0.00075601295462 -0.00075774247171 1.2282772341e-05 -0.00010391667969 -0.00094749577134 -4.3454376528e-07 
-0.00057763193377 0.00017454669963 0.00028011743724 0.00021776832925 -0.00058441216504 -0.00042050936052 -0.00059600615319 -0.00089131391755 3.5230774595e-05 
8.6719374707e-05 -0.0006159333607 0.00027019233029 -0.00011690500974 -0.00026413677721 -0.00016821050367 0.0005432466157 -0.0008154539478 3.1831964574e-05 
-8.3554313519e-05 -0.00041540954471 6.198490352e-05 -0.00030706345496 -0.00061516531303 2.8207946366e-05 0.00030649780572 -0.0010215017012 0.00044512036896 
0.00023778212248 -0.0012199057271 0.0001397379434 -1.1522797204e-05 -0.00041763058178 -0.0011028277128 -0.00010950181343 -0.0019003022636 -0.00058851369677 
0.00028073580859 -0.0018278751036 -2.0904827424e-05 0.00062131300355 -0.0014360692054 -7.1468325488e-05 -0.00019862614159 -0.00082898052243 -0.00020986509133 
0.00015354035161 -0.00097266520659 0.00014039319407 0.0003095911678 -0.0005940901961 -0.00043663024994 -0.00029077642535 -0.0012116163578 -0.0016307109179 
0.00026721520034 -0.001320226313 0.00039712166705 0.00021272390145 -0.0015393289903 -0.001544198267 0.00018112397464 -0.00089161885051 0.00030596102976 
0.00050836901933 -0.00072142377387 0.00027758856234 0.00043520070592 -0.0010446660771 -0.00081297130516 0.00022694152024 -0.0010243300816 -2.7330278364e-06 
-0.00041751443038 -0.0014149660088 -0.00042079544829 0.00029297043993 -0.00056828265915 0.00022972601133 -0.0041675660384 -0.0037761229004 1.1368259192e-05 
0.00017250351154 -0.0013253727371 -5.4402887508e-05 0.00014155247385 -0.0014843378498 4.6753475587e-06 0.00020033402371 -0.0005871873709 3.5146136162e-05 
0.0004634378751 -0.00074280236475 -0.00015215069553 -0.00051857348085 -0.0016000168204 -0.00058938166555 0.00042292786777 -0.0010219419777 -7.2036310604e-05 
0.00034746842906 -0.0002880872108 -0.00016145938829 0.0007682461733 -9.9053652976e-05 -7.54645424e-07 0.00098252034272 -0.00049629779697 -0.00085257183649 
-0.00030637666762 -0.0008687358541 4.1008779218e-05 0.00052253449365 -0.0010083813461 3.8919627167e-05 0.00074559238095 -0.0013094860144 -0.00011052706326 
0.00021919851514 -0.001932369321 -0.00027638825816 0.00064355974814 -0.0019609924215 -6.1185151754e-05 -0.0011551869494 -0.0014835875438 0.0002685306683 
-0.00025357443163 -0.0016381422984 0.00061271583945 0.0008110140637 -0.00023043407238 -0.00033656966125 0.0012028578252 -0.00058726141166 -0.00018602220163 
0.00056966069043 -0.00099127684701 2.1313814821e-05 0.027415155398 -0.007032145076 -0.031341635694 0.00040664561465 -0.0018412093977 -4.5615353149e-05 
0.0042989790545 -0.0051171672661 -0.0010718375855 -4.4719052273e-05 0.00014860687727 -0.00035822114709 -0.00028911876049 0.00063462952706 0.00038479134952 
-0.00041619728464 0.00042025817272 -0.00010099225265 0.00011913395503 -0.0011992557242 -0.00035415770095 -0.00025525227832 0.0006449042347 0.00051759914052 
-0.00027161540113 -0.00065416258046 2.4786220618e-05 0.00090679885686 -0.00052138552278 6.1090763848e-05 -0.00035140330975 -0.00020279365508 0.00095424242943 
0.00029697033577 -0.00059781664771 -0.00069883486099 -0.000282964912 -0.00066129607739 -0.00038565933517 -3.0798456129e-06 -0.00058151848152 -6.5708137607e-05 
0.0019660423009 0.00067237261625 0.00041875675048 -0.00039771798951 -0.00058674173339 -0.00015389748192 -0.00032382544896 -0.0011829755764 -0.00076999540491 
-0.00016914575137 -0.00053155704775 -0.00071623822125 -0.00020979464701 -0.0012660002629 -0.00033171771768 -0.00014675933005 -0.00030292407868 -0.00011961098768 
0.00053913616889 -0.00047692986105 0.00038812187258 0.0011103365375 -0.00076109009732 -0.00021062624547 -0.0025399896358 -0.006320569171 -0.0027912039459 
-0.00012458214844 4.3426645042e-05 -5.2046754569e-05 0.00051883597976 -0.0010289017373 0.00015830596614 -0.00085943866192 -0.0010199998518 8.0938446407e-06 
-0.00036602624939 -0.00010776456175 0.00057873863545 0.00029072082047 -0.00072690187322 -0.00031792501462 6.8754362233e-05 -0.001605621676 0.00071530321916 
0.00018601176283 -0.00075008317355 1.2315328197e-05 0.00019907398057 -0.00083666549206 5.9853419969e-06 4.0205407991e-05 -0.00051536170237 1.0199629885e-05 
8.7946875135e-05 -0.00041434313472 0.00080086079593 0.0007359685797 -0.00064385794308 -3.7278352124e-05 4.3581338664e-07 -0.00055278815837 -0.00011123523233 
0.00027722546846 -0.0010941352994 0.00038747653829 0.00013838218145 -0.0016657145651 0.00049973201766 0.00063938281611 -0.0012551399277 -0.00045337589154 
-0.00011943781007 -0.0013448024192 0.0002902816509 0.00039793466076 -0.00065398614686 -0.00034943465174 0.00025412724483 -0.0008169781694 8.0286421288e-05 
0.00039769647328 -0.0010061328742 0.00033160469398 0.00040307844669 -0.0012603788299 -0.00015003621441 0.00041306556637 -0.0013991484071 -2.8447480752e-05 
-0.0006362592441 -0.00080931965249 -0.00028815255607 5.6226644295e-05 -0.0014814569895 0.00073941629992 0.00049870763047 -0.0011156806171 -9.2777103536e-05 
0.00023366217715 -0.0014949205836 -0.00028527539674 0.00027190615939 -0.00033205770765 0.00030245034906 -8.8885672429e-05 -0.0011285995896 2.3971994932e-05 
0.00088844174467 -0.0010907380673 -0.00109897821 0.00023190218784 -0.0019014048953 0.00010385125317 -8.2567861854e-05 -0.0010919210483 -3.0502542072e-05 
0.0007035544319 -0.0008868651402 0.00041487128187 0.00075999365976 -0.0010108448583 -0.00033877277626 -6.826044041e-05 -0.0016045425506 -0.00061881623845 
0.0001070471399 -0.0012189619802 -0.00011165027603 0.00063004941768 -0.0010388837773 8.2345023228e-05 0.001409934606 -0.0015755449024 -0.00011032831382 
-0.00013898989232 -0.00083378792613 4.1118013647e-05 -0.00022118808094 -0.0018524728979 0.0014053446669 -0.00074893995222 -0.0026641336265 -4.1607965763e-05 
-0.0001465092158 -0.00098755806444 -2.5099479416e-06 4.0003280288e-05 -0.0018208050059 -0.00045872244163 -0.00012964526764 -0.0015751092714 1.4745700505e-05 
0.00020351273415 -0.0018582813219 -5.2731605385e-05 0.00068865674123 -0.0017138358437 -9.9236484541e-06 0.00065203673454 -0.0010856089023 -0.00016327772402 
0.00024884129352 -0.00099787879874 4.0488370433e-05 7.3107422914e-05 -0.0012481072502 0.00015619610613 0.00014992940248 -0.00094345206456 -7.9757943844e-05 
-4.0757508838e-05 -0.0015628188741 -8.8464100152e-05 0.00066147919014 -0.00098815051879 -0.00096150407361 -0.00023016545971 -0.001645008728 4.6540688653e-05 
-0.00054362491278 -0.004104371194 -0.0061242308053 -0.00061064203093 -0.0019793049998 -0.00061835730357 0.00031565769158 -0.0011019490393 -2.9479968993e-05 
-0.00030610906686 -0.0012550713161 0.00033612402028 5.3261280534e-05 -0.0009167513244 -0.00019631040847 8.0780357415e-05 -0.00100140289 -0.00014905219498 
0.00014470370517 -0.0019198005591 -4.9593762174e-06 -9.0943572327e-05 -0.0017610617298 -1.9254208149e-05 -0.0089531413252 -0.0034868746024 -0.0017734318713 
-0.00019673702351 -0.00089870130828 -3.0889223363e-06 0.0004398367262 -0.00078441219608 0.00015299538739 0.00027237975082 -0.0012016713264 0.00038897946982 
0.00052602275122 0.00040548011597 7.0579423168e-05 -0.00042126712265 -8.3927415691e-05 0.00030876537729 -0.00024974976249 0.0006974537292 0.00062285265614 
-0.00017623817238 -0.00080179687656 0.0010461166479 0.00040024369401 -0.0010340363735 1.6620323454e-05 0.0010917155677 0.00031063837608 0.0012756472187 
0.0004349014674 -0.00020901074325 0.0014271460067 0.00042909685396 -0.00070183453974 -0.00049729407842 0.00097500912428 0.00080924757106 -0.0011207464015 
-0.00014297655727 0.0003915048841 -5.997836055e-05 -9.1256335791e-05 0.00056303721948 -0.0013678785703 0.00039994444683 -0.00045786355291 -2.041605962e-06 
-0.0001582071999 -0.00047299364694 -0.00092177043717 -2.539565116e-05 -0.00097417701353 0.00035470375277 0.001040950533 -0.00094619075607 0.00021994227461 
-5.2353023265e-05 -0.00016328546315 1.4372655859e-05 0.0009571176804 -0.00027827857999 -0.00070052161588 -0.00022389751508 0.00021600947576 0.00039582372084 
0.0010091224756 -0.0010505856635 -0.00032914571739 0.0003267376241 -0.00053872819855 -2.3055089649e-05 3.3545918904e-05 7.4360529792e-05 0.00043265607934 
-0.00037271921608 4.0108632495e-06 0.00045965570908 0.0002647557051 -0.00051311653282 6.5699516416e-05 0.00022011203346 -0.0009397290437 -9.2768298537e-05 
-0.00012955545701 0.00059410967268 -6.3693003556e-05 7.8850921297e-05 -0.00075224839635 0.00094585866892 -0.0006918971204 -0.00014515744209 6.0459719243e-05 
-0.00021758767052 -0.0013498384171 0.00035018199306 6.2437469241e-05 -0.00093669639558 0.00080604410178 0.0013683399595 -0.000769233438 0.0011440678864 
0.00080855675647 -0.00051531893864 -4.1111629387e-05 0.00130740369 -0.00032220533825 7.5920164458e-05 -0.00036334195699 -0.0012874270282 -0.00018599558646 
0.00056069242956 -0.00015387693393 -0.0007399801547 0.00054719189282 -0.00034071336114 -4.976353846e-06 -5.8628713961e-05 -0.0012322557993 -3.4898050007e-05 
-0.00062717786444 -0.000844101193 3.631988058e-05 0.00071388655724 -0.0011863832902 0.00045472504952 0.00019083222732 -0.00018757467554 0.00090088257213 
0.00033568496611 -0.00033728004029 3.8747575253e-06 0.00013312832497 -0.00025811433851 -0.00039814228365 0.00036502689792 -0.00071215924771 1.2974354765e-05 
1.2633733976e-05 -0.00060691816742 -0.00034929081489 0.00037023576887 -0.001519486739 0.00045454586249 -0.00049236751579 -0.0013709268552 0.00019245266601 
3.5622085618e-05 -0.0013909329603 0.00022667885348 -0.00038366366716 -0.0012597450236 0.00017240599374 0.00044530322995 -0.0013930465343 -0.00013553381826 
0.00033133351734 -0.0013349952429 0.00019763652799 0.00054373131507 -0.0014549053892 0.00052336549394 0.00047704513346 -0.0010303289441 0.00077538723007 
0.00048329745112 -0.00087872291852 8.4694796459e-06 -0.00027779903305 -0.00091839304118 8.3564425818e-05 0.0003602548857 -0.0012908784095 2.4041040594e-05 
0.00030447655467 -0.0011668637276 -0.00053690790135 0.00048230286913 -0.0014146105363 -0.00010759658796 -0.00010242768602 -0.00080073451669 -0.00028727613342 
-0.00069667112076 -0.0013467493965 -9.4210094467e-05 -0.00045182837807 -0.0020637088024 0.0010045010144 0.0002281153509 -0.0010693058443 -0.00037552713123 
-0.00028445528362 -0.0008952520129 0.00028102141653 0.00035808599387 -0.00073642747761 -1.2861222784e-05 0.00015000704983 -0.0014386127569 -2.4369135492e-05 
0.00075922343767 -0.0015144771282 8.8006299031e-05 0.00062186112911 -0.0020717525675 9.1658006551e-05 9.2578196678e-05 -0.0018607335121 3.6337061934e-05 
9.2115365073e-05 -0.00086312306004 9.518516334e-05 -0.00066401018347 -0.0010299617391 -0.00032085511483 0.00075391914002 -0.0017189985806 -0.00045465548561 
0.00025019329998 -0.00099338911549 1.6472692948e-05 0.00036221485737 -0.0013578705013 0.00018834639407 1.3111321091e-05 -0.0010921061089 -0.00015642761903 
-0.00020228108286 -0.0022210027412 0.00031541868246 -0.00036511061422 -0.0021927629373 -1.8269260876e-05 -0.0013084680954 -0.0022045832047 0.00092200799658 
-0.0003043579395 -0.0019076349562 -0.00018123885177 0.00043351330678 -0.00099939450537 -7.1048404588e-05 -0.00010643992506 -0.0019593322916 -0.00031965811926 
-0.00036633211513 -0.0021428637172 9.0395027861e-06 0.00032902110641 -0.001073454824 -0.00010800283614 0.0019612695715 -0.00026375277207 0.0052502746007 
-5.7481812526e-05 -0.001442086892 -4.2084298161e-05 1.5298768737e-06 -0.0010163229997 -0.00035475240682 0.00011170701421 -0.0015294257593 -4.1862063817e-05 