# vtk DataFile Version 4.1
vtk output
ASCII
DATASET UNSTRUCTURED_GRID
POINTS 1274 float
0.513121 0.553532 0.0379545 0.469605 0.650977 0.105209 0.488067 0.597537 0.268458 
0.494848 0.58734 0.098723 0.42374 0.75579 0.0323158 0.424454 0.768448 0.11972 
0.475626 0.637279 0.212931 0.459533 0.669879 0.268648 0.394083 0.844734 0.0588746 
0.398433 0.812685 0.164905 0.446013 0.699081 0.214852 0.43288 0.738637 0.265757 
0.36301 0.902371 0.0319696 0.343794 0.968105 0.0520807 0.381338 0.878379 0.146406 
0.394933 0.844089 0.231816 0.345452 0.957294 0.259977 0.314082 1.03892 0.0387204 
0.3907 0.91358 0.0865685 0.447929 0.898949 0.11012 0.332312 0.996005 0.130026 
0.408847 0.914904 0.21847 0.3104 1.03777 0.265122 0.352034 0.92943 0.187709 
0.281658 1.10173 0.0486029 0.328072 0.987579 0.200749 0.286585 1.10828 0.260298 
0.257818 1.16228 0.0336643 0.357244 1.11547 0.10382 0.301907 1.06885 0.109319 
0.28979 1.25156 0.0382187 0.302922 1.04524 0.200292 0.283616 1.10037 0.172345 
0.333293 1.25523 0.0925141 0.385106 1.15754 0.0376381 0.275632 1.14826 0.110225 
0.421674 1.14968 0.106382 0.260765 1.15036 0.208509 0.340073 1.1068 0.211279 
0.21868 1.25615 0.0332147 0.320111 1.18574 0.0541628 0.319598 1.15661 0.173657 
0.244806 1.19887 0.164505 0.287433 1.183 0.26484 0.239137 1.22197 0.0935832 
0.372184 1.23134 0.0356631 0.236549 1.23023 0.23639 0.215785 1.2565 0.149547 
0.540943 0.470254 0.0302074 0.611636 0.295401 0.0942295 0.595605 0.358565 0.121812 
0.596915 0.347615 0.198053 0.576148 0.38874 0.2665 0.610276 0.313959 0.262143 
0.54087 0.469594 0.209718 0.508795 0.55763 0.218701 0.603458 0.328743 0.0358989 
0.566614 0.417661 0.159167 0.484051 0.623933 0.0378764 0.609031 0.474824 0.0469684 
0.546034 0.474859 0.0985048 0.549596 0.44807 0.268476 0.565181 0.57156 0.26277 
0.527497 0.512259 0.159565 0.550811 0.668538 0.0308614 0.445406 0.711431 0.0787625 
0.517541 0.697746 0.106456 0.471677 0.753293 0.178272 0.55132 0.547984 0.101697 
0.523102 0.658199 0.266703 0.446325 0.696998 0.145816 0.415023 0.777396 0.214464 
0.50103 0.680745 0.169832 0.554675 0.577213 0.168264 0.49419 0.780001 0.0921954 
0.535632 0.760393 0.146358 0.459096 0.814535 0.0363743 0.50842 0.724298 0.0397537 
0.484491 0.81775 0.150778 0.437015 0.835693 0.113035 0.364644 0.893936 0.269731 
0.49942 0.769321 0.260789 0.538766 0.617363 0.219137 0.563406 0.747588 0.220252 
0.467931 0.81551 0.21363 0.506927 0.705671 0.22643 0.459925 0.889242 0.0399617 
0.520412 0.853543 0.0354206 0.53582 0.7909 0.0326235 0.454035 0.875605 0.177647 
0.49546 0.849756 0.0951721 0.464529 0.87 0.260663 0.438672 0.803538 0.269008 
0.41717 0.951768 0.0373636 0.373542 1.08934 0.0325885 0.466054 1.00451 0.0331266 
0.40068 0.996593 0.0950703 0.415901 0.947978 0.150938 0.468549 0.964286 0.0913844 
0.485382 0.940745 0.262671 0.419653 0.972404 0.261479 0.535119 0.982986 0.2689 
0.460535 0.951438 0.203279 0.383806 1.02416 0.0323961 0.365522 1.05434 0.0848559 
0.463379 1.03216 0.090229 0.362836 1.06291 0.158344 0.39556 1.00458 0.196837 
0.441741 1.05098 0.264238 0.377175 1.02902 0.267487 0.483235 1.00322 0.236533 
0.457237 1.1359 0.0385422 0.47051 1.08308 0.123105 0.427442 1.04189 0.139087 
0.360912 1.09023 0.269156 0.526784 1.17837 0.175605 0.489831 1.10201 0.267785 
0.407782 1.08817 0.213357 0.429787 1.13351 0.264219 0.445449 1.1202 0.166921 
0.358824 1.16034 0.260112 0.511135 1.18697 0.0383312 0.498714 1.14672 0.120103 
0.437137 1.20567 0.0341932 0.3699 1.20147 0.100974 0.38123 1.13324 0.16603 
0.338879 1.23671 0.260951 0.45331 1.16746 0.207794 0.402637 1.20642 0.221626 
0.469322 1.19084 0.266121 0.487488 1.25492 0.0362705 0.312706 1.21226 0.137341 
0.460479 1.24893 0.225663 0.300342 1.21273 0.203973 0.474883 1.21168 0.169835 
0.373404 1.22819 0.16363 0.639473 0.231795 0.179642 0.564036 0.413007 0.0316594 
0.660069 0.19286 0.0570832 0.660689 0.287812 0.213356 0.640257 0.240906 0.263509 
0.668862 0.174648 0.207389 0.642526 0.223927 0.115723 0.63132 0.405145 0.036346 
0.592052 0.422547 0.0893459 0.527062 0.509703 0.265847 0.605887 0.486388 0.26301 
0.617307 0.291284 0.159051 0.639471 0.377315 0.24643 0.613876 0.459957 0.136026 
0.588255 0.546343 0.0375218 0.660608 0.423042 0.101305 0.534377 0.635844 0.131503 
0.605174 0.528379 0.146868 0.576226 0.524017 0.211882 0.592785 0.433155 0.220374 
0.613474 0.623403 0.266298 0.603764 0.717448 0.0390314 0.555323 0.609657 0.0645754 
0.569902 0.733324 0.0989359 0.566654 0.697336 0.157973 0.600039 0.709508 0.268227 
0.592035 0.633891 0.174992 0.644872 0.639514 0.211365 0.571799 0.671737 0.224497 
0.597387 0.757964 0.159975 0.587231 0.66622 0.095745 0.639211 0.787006 0.0390311 
0.561884 0.795722 0.0909538 0.541136 0.813505 0.189967 0.545398 0.831557 0.261832 
0.616404 0.773927 0.265252 0.515499 0.872531 0.211219 0.625583 0.70817 0.201438 
0.600437 0.820318 0.221433 0.58501 0.836891 0.0347552 0.56103 0.859163 0.0929747 
0.565953 0.908695 0.0397016 0.504005 0.94293 0.0315439 0.552191 0.908977 0.260437 
0.598478 0.966506 0.265548 0.52863 0.862199 0.14637 0.506028 0.922422 0.171399 
0.535752 1.00232 0.0512841 0.522853 0.915142 0.105208 0.473172 1.05848 0.190191 
0.469021 0.995059 0.155176 0.537692 0.988137 0.137599 0.518263 1.04588 0.269178 
0.570611 0.944037 0.19219 0.436574 1.06566 0.03481 0.538661 1.12357 0.0335697 
0.573236 1.06382 0.0351738 0.50417 1.06377 0.0328709 0.552252 1.1071 0.0955268 
0.522903 1.04956 0.104353 0.542634 1.0078 0.209059 0.503122 1.12478 0.204804 
0.538907 1.23331 0.0892202 0.574508 1.21087 0.0322881 0.564111 1.17591 0.122874 
0.522837 1.08993 0.15305 0.605082 1.08644 0.268672 0.540372 1.23709 0.159291 
0.534111 1.21092 0.237645 0.567138 1.12888 0.179825 0.556982 1.07229 0.214748 
0.553628 1.13576 0.259467 0.640155 1.20657 0.0426957 0.622316 1.2088 0.110081 
0.465197 1.21399 0.100806 0.64764 1.23493 0.221437 0.595625 1.19758 0.186292 
0.77323 1.16651 0.205807 0.678945 0.13098 0.0400516 0.693164 0.119855 0.113929 
0.721562 0.0322015 0.193186 0.682151 0.133926 0.26551 0.69771 0.0948305 0.182688 
0.636851 0.262046 0.038733 0.696455 0.315306 0.0396629 0.702012 0.225482 0.150712 
0.704574 0.265988 0.267352 0.640155 0.405632 0.17369 0.695452 0.19961 0.267448 
0.678851 0.326735 0.266697 0.663254 0.33611 0.138007 0.679043 0.457688 0.0410767 
0.657052 0.494168 0.0969003 0.651552 0.355303 0.0775568 0.685534 0.466429 0.157634 
0.650182 0.460526 0.216884 0.682114 0.278482 0.104432 0.729449 0.411921 0.197851 
0.690865 0.353783 0.201457 0.61188 0.643794 0.0351634 0.660837 0.524675 0.0349364 
0.635681 0.558128 0.0892545 0.595618 0.600075 0.119883 0.64828 0.605931 0.156765 
0.664096 0.682854 0.262131 0.638957 0.545153 0.269081 0.687465 0.58151 0.207326 
0.617398 0.577819 0.209309 0.673892 0.545898 0.150192 0.678408 0.515289 0.206386 
0.629672 0.714188 0.122734 0.658401 0.653053 0.0925184 0.697628 0.572246 0.0976204 
0.709155 0.626107 0.140367 0.717064 0.646679 0.206501 0.661587 0.821975 0.268703 
0.665757 0.671133 0.160262 0.624361 0.801705 0.117101 0.647976 0.875254 0.0391001 
0.689564 0.760307 0.0793663 0.708232 0.700861 0.0860077 0.68085 0.762203 0.148969 
0.637719 0.77436 0.203141 0.697081 0.715279 0.205101 0.613549 0.866582 0.265677 
0.582537 0.871024 0.18282 0.614943 0.967989 0.0372507 0.668531 0.983614 0.0765376 
0.630988 0.867756 0.106381 0.644169 0.926035 0.0883235 0.587059 0.90671 0.125108 
0.610103 0.966065 0.138893 0.635175 0.983462 0.209861 0.678007 0.847793 0.147854 
0.635603 0.921322 0.233628 0.643449 0.863283 0.207637 0.632487 0.915031 0.169032 
0.630959 1.10708 0.0300622 0.642165 1.03851 0.0394181 0.694633 1.09093 0.0358781 
0.574965 0.955564 0.0906077 0.594968 1.01973 0.0955158 0.667641 1.04151 0.115454 
0.578321 1.02963 0.26041 0.614119 1.02398 0.161866 0.672429 1.02998 0.183778 
0.616484 1.08863 0.0907899 0.622912 1.14225 0.138181 0.697091 1.16385 0.0370853 
0.595384 1.15279 0.0646352 0.582095 1.07603 0.146035 0.62411 1.05491 0.217004 
0.741678 1.13061 0.0834298 0.636526 1.13179 0.223608 0.661222 1.09113 0.167644 
0.603607 1.19409 0.26361 0.749673 1.21089 0.033559 0.791757 1.18013 0.101309 
0.69021 1.16853 0.106142 0.673279 1.19717 0.168539 0.677326 1.18628 0.261063 
0.721654 0.0829157 0.0341654 0.753511 0.121269 0.0768972 0.717992 0.0494978 0.119447 
0.783983 0.0580306 0.126685 0.723573 0.0411801 0.26245 0.735625 0.104996 0.24349 
0.707658 0.241561 0.0350601 0.750382 0.180983 0.0391991 0.768243 0.266014 0.030452 
0.73619 0.178645 0.110587 0.727254 0.156336 0.172466 0.756218 0.166831 0.263423 
0.773826 0.229589 0.154882 0.769803 0.242034 0.262808 0.73188 0.209209 0.212732 
0.70337 0.390986 0.0363938 0.765942 0.327825 0.0314089 0.721082 0.333254 0.103431 
0.74753 0.251395 0.0925273 0.733662 0.417742 0.0925195 0.764864 0.373286 0.127852 
0.704045 0.387392 0.14127 0.748269 0.319485 0.263462 0.733497 0.281091 0.197302 
0.697104 0.42053 0.260496 0.725738 0.512087 0.0879861 0.751326 0.463376 0.0378104 
0.796359 0.483334 0.0865821 0.755102 0.46841 0.136073 0.790669 0.418736 0.170923 
0.675678 0.492442 0.26665 0.804328 0.511743 0.264175 0.773078 0.399136 0.260576 
0.741474 0.48065 0.245845 0.718296 0.547534 0.263651 0.670245 0.598015 0.0391191 
0.693476 0.664308 0.031532 0.737892 0.531887 0.176298 0.761692 0.579978 0.122251 
0.67892 0.612816 0.267401 0.753202 0.584988 0.21644 0.743492 0.621143 0.267491 
0.673475 0.723949 0.0315688 0.747674 0.747203 0.111963 0.757836 0.69089 0.0385848 
0.728177 0.75438 0.0312107 0.747769 0.654603 0.0972037 0.740288 0.692177 0.26113 
0.688579 0.815458 0.208814 0.727576 0.690938 0.147321 0.751879 0.744116 0.178763 
0.694515 0.743594 0.269539 0.702135 0.932879 0.0399801 0.717738 0.851727 0.0346095 
0.681731 0.823431 0.0843586 0.694341 0.886692 0.0951631 0.740342 0.808899 0.159183 
0.738658 0.836288 0.260085 0.733021 0.773227 0.230013 0.681214 0.884662 0.265523 
0.712696 0.876526 0.207851 0.688104 0.949779 0.268912 0.717837 1.0188 0.0398208 
0.725884 1.06742 0.0894087 0.728472 0.950385 0.107479 0.689491 0.945231 0.205817 
0.672113 0.974821 0.138911 0.692712 0.916961 0.15012 0.731074 1.00783 0.154902 
[...]
POINT_DATA 1274
FIELD FieldData 10
VELOCITY 3 1274 double
0.00042124569944 -0.0011496479478 8.3199334793e-05 0.00030298126329 -0.00066236557847 -0.0004330657742 0.00065413245871 -0.0016105857937 6.5214497394e-07 
0.00030891690962 -0.00016634254733 -0.0013534031383 0.00058131742421 -0.00089871579816 -4.2427098183e-05 0.00046034281886 -0.00071222873001 0.0005970887378 
0.0003017522864 -0.00096586464917 0.00017226569553 0.00017222302546 -0.00061566532934 1.5598385439e-05 0.00037945808595 -0.00091320227023 -9.6754507258e-06 
0.00018833134302 -0.00058231298114 0.00046480404167 0.00069247224805 -0.0020602977095 -0.0017253957775 0.00046110057912 -0.0011906811934 1.5178857425e-05 
0.00026964686005 -0.00073216024194 6.5104642968e-06 0.00047651452295 -0.0011655857782 0.00040351979568 0.00023247194527 -0.00066499836062 9.3130525941e-07 
0.00040246150883 -0.00094829706762 -0.00034183369285 0.00046665301958 -0.0011545750646 -0.00026255005762 0.00051673077118 -0.0012392007631 -2.6814116407e-05 
0.00064145697043 -0.0010254880004 -9.8641033419e-05 0.00089086355434 -0.00076994167021 -0.00014280020906 0.00039188346901 -0.00088179293242 1.9247266427e-05 
0.0001719865978 -0.00090591575974 6.6204778492e-05 0.00025861813094 -0.00058894717524 -0.000196932733 0.0002411322309 -0.00058626680008 -9.3162085354e-05 
0.00053116003007 -0.0012876709011 0.00042799260848 0.00033250122858 -0.000626696782 6.4075003e-05 0.00020788806829 -0.00057189328833 3.6611078911e-05 
0.00048206929444 -0.0011456224068 1.2242725709e-05 0.00041116790425 -0.00088106972873 -0.0006549691914 0.00028156536002 -0.00063932686993 -0.00034361296701 
0.00010393461271 -0.0014354621478 2.5227670608e-05 0.00020830111019 -0.00066683789362 -1.7925649753e-05 0.00027634658702 -0.000665464726 -4.5584214435e-05 
0.0003762165878 -0.00096639078447 -0.00025361179971 0.00077986770153 -0.0011083760764 0.00037510573924 0.00028871736439 -0.0007045744136 1.5024657407e-05 
0.00041278788332 -0.00086286873853 -0.00023306792721 0.00028892517376 -0.00064131966074 -8.4006867173e-05 0.00014242062109 -0.00077435750842 -5.8204497164e-05 
0.00019182454034 -0.00047067225734 -3.7555656878e-05 0.00059050033043 -0.0012848325596 -0.0002723015222 0.00032864996497 -0.00067731406749 -9.2992981773e-05 
0.00027359325376 -0.00065379424993 -0.00010342214335 -2.1730959256e-05 -0.00057091385335 -1.7196676162e-05 0.00030752956126 -0.00073917334096 -0.00023053469827 
0.00062623525196 -0.0012208651102 2.0987129307e-05 0.00016747998168 -0.00040349811442 -9.7604029401e-05 0.00028929516808 -0.00069186740402 -0.00025902715963 
-0.00017936732453 0.00069146381968 1.7077958376e-05 -0.0012468369013 -5.2616619462e-05 -0.00077231379182 6.9139149822e-05 -0.00024067473679 0.00057793943138 
0.00010316516345 -0.00042229459637 0.0004314849815 0.0002483731492 -0.0011675571156 -0.0014801624578 0.00028761547018 -0.00081981572735 0.0001691498829 
0.00020615190722 -0.00051528350493 8.2835558382e-06 0.00081271669891 -0.0012227778707 -0.00068537052965 0.00011117486229 -0.00029378635222 -1.3484559724e-05 
-7.1897469232e-05 0.00052474524234 -0.00047168413835 5.1583976493e-05 -0.00038568702392 -1.123283161e-05 -0.0014833171728 -0.0014414857765 -0.0017697858778 
7.255238609e-05 -0.00034094854688 -3.4317063131e-06 0.00091800082933 -0.00032824623542 0.00045397314196 7.1449371898e-05 -0.00091893088593 -1.9103499515e-05 
9.7946259583e-05 -0.00055737209108 0.00018270358371 -0.00018605813774 -0.00092183676958 0.00036390112665 4.463350371e-05 -9.335365081e-05 0.00036434087905 
0.00020562363468 -0.000592887656 -0.00010280617875 0.00023197041874 -0.00065768283772 8.428367293e-06 0.00014476778518 -0.00038805270287 0.00084188999125 
-0.00046134891303 -0.0014620971998 -0.00018225610503 0.00026165948377 -0.00053593273693 -0.00043149557429 0.00029969230597 -0.0010571549763 4.5676387471e-05 
6.2118659148e-05 -0.00075281212847 -0.00023812699503 0.00023498296666 -0.0003820061426 -0.00071247261406 9.3076252388e-05 -0.00057114096471 -0.00010967347302 
0.00069542378891 -0.0014976902275 0.00058239768037 0.00042227865662 -0.00078054770107 4.3368362526e-05 0.00037188151685 -0.001012814461 -7.735939508e-05 
0.00046936140475 -0.00097762643349 0.00036642932245 0.00010294391237 -0.00058252599286 -0.00010032976445 0.00046509354197 -0.0011044007373 -8.9985338702e-06 
8.9869454397e-05 -0.00050726763998 -0.00026645317378 0.00053116213921 -0.0010163663354 0.00029724260993 0.00053381192938 -0.0014629688867 0.00029261666141 
0.00043860141048 -0.0011752864903 0.00037163967939 0.00029052534698 -0.0007649745398 8.2160990115e-05 0.00012083592572 -0.0008117616629 -0.00026446909605 
6.0699721888e-05 -0.0010590936682 0.0001677026189 0.00019976124128 -0.00076013807918 -5.5618731745e-07 0.00013622344813 -0.00085239864357 -0.00014673630332 
0.00058635341773 -0.00092928386353 -7.9622372248e-05 -0.00055922801886 -0.00082525711053 -2.7875281047e-05 7.0166992576e-06 -0.0010345143098 0.00010660427836 
0.00074816441382 -0.00048246111869 8.9277452339e-05 0.00010647567257 -0.0010916841677 8.3477051455e-06 -0.00014730632595 -0.00096501940222 2.8268819359e-06 
0.00012856081119 -0.0010364029507 0.00021225755794 0.00091445653639 -0.00093307870879 5.6522125617e-05 0.00056405380855 -0.00054359983445 0.00025279231426 
-3.9049910971e-05 -0.0010425816493 0.00045849979031 0.00016308635438 -0.0007535506941 -0.00012232364231 0.00017167867044 -0.0012229535395 -4.9461659507e-08 
0.00086835896517 -0.001587050271 2.7532477441e-05 0.00027866545793 -0.0011072511871 3.6366902606e-05 0.00028192247722 -0.0010933745018 6.2972114233e-05 
-0.00018541440837 -0.00072142516346 -5.0403960442e-05 0.00027232975963 -0.00078426511317 -7.1951650454e-05 0.00024398601069 -0.00082934540704 -4.2518692381e-05 
0.00029197962573 -0.00061161266186 -2.4415318354e-05 0.0001214322297 -0.00085298561358 0.00027689608137 -3.9484628917e-05 -0.0011259043878 0.0003797001011 
0.00078391955416 -0.0010330509044 -0.00013450644708 -6.883328442e-05 -0.00071840678077 -0.00016179414782 0.00034288448791 -0.00095555488985 0.00046210520607 
-6.5718720451e-05 -0.0008378388712 -5.5194611093e-06 0.00057899815556 -0.00080364382657 0.0003052485288 0.00021585429375 -0.00099861432222 5.2481424358e-05 
-0.00012770087663 -0.00076621947166 0.00019889360416 0.00037501681079 -0.0007268374395 -3.2162148152e-05 0.00022127187534 -0.000854739589 0.00018637281352 
-0.00015603977829 -0.00083291590069 -3.827149875e-05 0.0003544308845 -0.0005482440274 6.4692930423e-06 0.00030515549727 -0.00094840523014 0.0006736243336 
0.00068564475966 -0.0010760274218 1.4280028875e-06 0.00037092342507 -0.00095302864867 -5.1489552973e-05 0.00019102264472 -0.00074233131065 -0.00048165068866 
6.3296621387e-05 -0.00079012180943 1.3225770008e-06 6.8126952238e-05 -0.00081389053541 0.00010821081558 0.0003986423154 -0.00072331415111 0.00076170413631 
0.00023760915095 -0.00066884193118 1.2607605612e-05 0.0002289850688 -0.00059924247105 -1.7099233096e-05 0.00024834808121 -0.00067864312202 -2.8454449146e-05 
0.00040487787328 -0.00068485554398 -0.00017000472733 7.6451768394e-05 -0.00074003184883 -5.0701559571e-05 0.00049114607675 -0.0010166660134 8.2790563111e-05 
0.0003686163768 -0.0017823632635 0.00031847054665 -8.3037303277e-05 0.00046336360666 0.00037177522491 -5.6643989389e-05 0.00057091594551 -0.00017997828463 
9.7983296646e-05 -0.00019951751194 0.00063504805309 -0.00073400311633 -0.00060744090748 -0.00031959262483 -5.8270572442e-05 0.00053659082169 0.00064258983536 
-7.6077125475e-05 0.00018269386737 0.00018014459624 -0.0005114725325 0.0011458385342 0.00044896818636 -0.0019455198216 -0.0020628600905 0.00017762999354 
0.00077042169765 9.308553881e-05 -0.00013102600126 -0.00026461146403 -0.00061026674296 -4.6010170496e-05 0.00028442194032 -0.00074197265037 0.00031069046156 
9.1426921789e-05 0.0010217317758 -0.00048645036851 0.00064061852371 -0.0005476174236 0.001537775962 0.00043720656465 -0.00079794087061 0.00064008676404 
0.00053595983282 -0.00060795754943 -1.5295846454e-05 0.00064358258697 -0.00036873658575 -0.00067488524089 5.414923259e-05 -0.00066999752414 -0.00012311397599 
0.00093531292099 -0.00039331431909 -0.0004868654613 0.0004019439969 -0.00072824012839 -0.00013032099295 0.00035709405005 -0.00022027186891 0.00053403045751 
-0.00028735120087 -0.00036883477904 2.588362805e-05 -0.00023589707993 -0.0010439608572 -0.00016905008144 0.00021538166477 -0.00091174114696 -0.00042967201443 
0.00087820048559 -0.00054551126863 0.00025130631237 0.0006000864928 -0.0012523386468 0.00025291949597 0.00018340309554 -0.00099919806354 7.0789632416e-05 
0.00051371897558 -0.00072030891081 0.00094972690018 0.00090709707987 -0.0014999727912 0.00031189698479 -0.00026757795796 -0.00061724138863 -8.7146969323e-05 
-0.0012010116569 0.00044648227416 -0.00037153274332 0.00025400304164 -1.084571517e-05 -0.00036795255335 0.00010158710394 -0.00090186955728 -5.4182395636e-05 
0.00029997455024 -0.0016495046135 6.5850738733e-05 -0.00063905246012 -0.0006379407134 -4.085775135e-05 0.00018485257012 -0.00069405744143 -5.0112768063e-05 
-0.00010828784697 -0.00039204621694 -8.0077899347e-07 -6.4169238215e-05 -0.00084609935658 0.00043091462504 0.00021481075982 -0.00073127439747 0.00041864100669 
-3.5398722124e-05 -0.001318003344 -0.00031400562721 0.00016095182562 -0.00078019737438 0.00024894802251 0.00021506155619 -0.0016459514226 0.00032497001722 
-0.00023994090042 -0.00078332577414 -0.00010740664695 -5.7584264083e-05 -0.00056999939238 0.00014707958136 0.00020587564594 -0.00076686605842 -3.269012834e-05 
0.00028880520665 -0.00077800181662 0.00014367756649 5.6317227315e-05 -0.00066725312212 -3.4501082953e-05 0.0004965244472 -0.0013285089736 -0.00076843961154 
0.00036608327618 -0.00091990087523 0.00025938407718 0.00012053270259 -0.0012774816834 -0.00093822646532 -1.4040236681e-05 -0.00083402935848 0.00065214325485 
0.00042857606804 -0.00064456020228 0.00048191612051 0.00030934708623 -0.00050862743065 -0.00027535373326 0.00025220084744 -0.0010136947787 -1.4628469764e-05 
9.176856634e-06 -0.00044395905315 0.00011213073035 0.00013436703193 -0.00085313639493 0.00013636928862 -2.5765974301e-05 -0.00069063967409 5.6139415481e-07 
0.00026242790747 -0.00089551063856 8.8380687417e-06 9.3534926894e-05 -0.0010754470814 1.5877471949e-05 0.00019729691754 -0.00069125564272 -0.00016410778038 
-0.00019417598061 -0.00068276479651 -0.00028825349658 -0.00016607951385 -0.00053769966094 3.2108031026e-05 5.0918107854e-05 -0.00075981943664 9.0662604513e-07 
0.00035277996471 -0.00067570517355 4.0041310654e-05 0.00037505280529 -0.00059749543423 -2.4506619439e-06 0.00028336238666 -0.00079990684085 -0.00011347883435 
4.5008338877e-05 -0.0014620301622 0.00031573456937 0.00026348894616 -0.0006913893391 4.0949040178e-05 0.00021115043641 -0.00079645330079 3.4284176754e-05 
0.00016985046361 -0.00034873781751 0.00011935691951 0.00043394123355 -0.00099698962403 -0.0002079528775 4.518134921e-05 -0.00058542760281 0.00029274856848 
0.00011490320729 -0.00084036880512 -3.3601563382e-05 0.00039972030297 -0.00084131730036 -0.00034619923741 0.00021941338801 -0.00082584319729 -0.00036033606189 
0.00043357264252 -0.00091257138131 6.9136645107e-05 0.00016822603945 -0.0009298716006 -2.0117047108e-05 0.00013250474491 -0.00092204338972 -2.9380636094e-05 
6.6092739511e-06 -0.0013688781085 -9.7649998333e-05 -3.0156902574e-05 8.0482252972e-07 -9.2600939468e-06 4.0788123129e-05 0.00011558819012 0.0013174873796 
-3.0475389494e-05 5.1078569122e-05 0.00062182654273 -0.00016059462628 -1.5356151034e-06 -0.00023876076566 -3.0914259254e-05 0.00011192239002 0.0010404079739 
-0.00011785978046 -0.00040363234066 0.00010302462732 -0.00065384051007 -0.00026029265021 -0.00045946935228 -0.00020740392259 0.00050415341197 0.00057678430657 
0.0001092445892 -0.00028001051188 -0.00032698429693 2.8327406525e-05 -0.00056038225674 -0.00014353643179 7.7777270212e-06 2.3619895689e-05 4.5312690859e-06 
0.0021344602342 3.8356414839e-06 -4.2760504859e-05 -0.00085435774078 -0.0005324112389 0.00029262410792 -0.0012056889711 -0.00060077990257 -0.00025640143173 
-0.0032900350701 -0.001024170188 -0.00040854315118 0.00020371372007 -0.0012628507229 -1.6064294845e-05 -0.00048449072935 -0.00022420939026 -0.00050664039129 
0.00059291980539 -0.0015324695472 -0.00018479293473 0.0012414957699 0.00020846118387 0.00045763384413 0.00048113049871 -0.00020736805935 0.00041360871982 
0.00037047087863 0.00035021932954 0.0001261383296 9.4218047596e-05 -0.0011170436818 1.4529955251e-05 -0.0013207917217 -0.00053768961007 -0.00031524322887 
0.0002577100771 0.00016924933016 0.00026072568598 0.00024499532361 0.00078117374276 7.0918858283e-05 0.00041969067355 -0.0014714434223 2.4201609272e-05 
0.00028650815338 -0.00073848537205 -1.7490010625e-05 0.00073252358758 -0.00083267022346 -1.6623704153e-06 0.00041959998483 -0.00090491330785 8.5926594918e-05 
0.00034700316615 -0.00052690245499 0.00045519805002 0.0010324660162 -0.00012078786338 0.00082272788839 -0.00081154425279 -0.0014154777927 -0.00028395531902 
0.00095944346774 -0.00095699481401 0.00026089446333 -0.00016306537117 -0.0012516655054 0.00045299519983 0.00013612303813 -0.0018354936238 -0.00049901250349 
0.00026230497715 -0.001057823922 0.00072005965846 -0.0004823216469 -0.00045069773333 -0.00021569998927 0.00047931753903 -0.001216450502 -0.00043931368963 
0.00026659628237 -0.0012492322578 0.00031906960523 0.00045794854961 -0.0011296069379 0.00046957922731 0.00014186804024 -0.00095073103972 -4.5075671705e-05 
8.9049924642e-05 -0.001617230365 -6.92427557e-06 -0.00015133414682 -0.0011571273466 0.00052794948991 0.00026612883585 9.4257119757e-05 -4.7818481348e-05 
0.00060362488691 -0.0019099030883 0.00042714371879 5.2612528263e-05 -0.0010784786529 -0.00022391444187 -0.00016075359168 -0.001511789758 -3.8627747605e-07 
-0.00024993762313 -0.00086848138017 0.00091166392546 6.6232652648e-05 -0.0010223755134 8.2697881947e-05 -9.5263769397e-05 -0.00079949202849 2.9068050341e-05 
0.00029302162854 -0.00068486894243 1.9160114254e-05 0.00026422528686 -0.00081771736666 -7.0915746908e-05 -0.00013775449455 -0.0012804230987 -0.0002231257231 
9.7427932733e-06 -0.00093118509896 3.1406380373e-05 0.00045067982945 -0.00076717416886 8.9712828454e-05 0.00042291851432 -0.0010007978899 -0.00015205310801 
0.00018276321302 -0.00089634948531 -0.00027552877333 -0.00013474512293 -0.001279644697 1.2564375729e-05 -0.00043488617204 -0.00052338955167 -0.00024111354822 
0.00064823731352 -0.00038631458114 2.8116410427e-05 0.00021966385012 -0.0010004418882 -0.00041481558607 0.00038202932548 -0.0011639535401 -4.6096985725e-05 
0.00027477695856 -0.00066660367089 -7.4480400322e-05 0.00067513630097 -0.00086124081438 -7.0136724243e-05 0.00025395101326 -0.00062690248457 -0.00014470057393 
0.00029671002985 -0.0007954440542 -5.5982179854e-05 0.00031718571907 -0.00089508468998 6.3857409411e-05 1.5281179429e-05 -0.00073693505832 -3.1804822422e-05 
-6.3887904066e-05 -0.001008211276 -0.0001803553184 0.00034482552672 -0.00071390088418 -0.00016679049071 0.00024510767939 -0.001139994334 3.7084548513e-05 
0.00031663367599 -0.00066062648578 -0.0001193843062 3.2760030592e-05 -0.0011299730456 -0.00026510924062 8.6084057393e-05 -0.00080982675776 4.3703513184e-05 
0.00037992853662 -0.00094502719529 6.025018508e-05 0.00029247170107 -0.00075694135982 -1.7319626109e-05 0.00014560198414 -0.00075740139744 -5.2845999692e-05 
0.00014880002102 -0.00074066434612 1.0073992869e-05 0.00046768330779 -0.0013808755759 -2.4875144385e-05 0.00078661573693 -0.0015043221731 0.00032636816073 
0.00047888522231 -0.00065842045124 -1.2090559651e-05 0.00016027107509 -0.0010700254064 8.7447002884e-05 0.00011209022965 -0.00080328382538 0.00022151182661 
0.000414493794 0.00030108355981 -3.6835906066e-05 0.00026537530385 -0.00099656811256 0.0005120484068 7.1402364315e-05 -0.00013286629761 0.0010833709817 
-0.00061883342955 -0.0013676871885 0.00089898236253 0.00014608139738 -0.00025055601094 -0.00043868163721 0.00049509639084 0.00063287030886 0.00067233702799 
0.00023477001461 -0.00015759135655 0.001545713691 -0.0012115243244 -0.0013180219188 -0.00041286581013 8.1472718771e-05 0.0015102095498 -0.0010272852917 
-0.0002500628148 -8.497178293e-05 0.00011923082557 -0.00048136464084 0.00017714099953 -0.00060905528352 -0.00011970980844 -0.00049287538184 -5.5474412639e-05 
-4.4592834181e-05 -0.00018617411747 -0.00036981729791 0.00012960436713 -0.00066935697935 0.00040603160539 -0.00012980591875 -0.00036687312627 2.9867965432e-06 
0.00059004993426 -0.0002644731448 8.8331590022e-05 0.00066012918376 -0.00014718318239 0.00065077630607 0.0005689006397 -0.00015988608169 -0.00011337660756 
-0.00018717150397 -0.00091986650093 0.00022485437966 0.00055314656493 -0.00051562080042 -8.5127550889e-05 0.00010544130973 -7.3519460079e-05 0.0002118918253 
0.00010889921492 0.00019242059269 0.00035553778205 0.00061156515434 -0.00070112523268 -0.00025553804275 -0.00020200837444 -0.0001536789578 0.0010375149471 
-0.00028246854487 0.00055552268374 -0.00018838822329 -0.0012778877182 -0.0012988293176 0.0010723700924 -0.0013304060479 -0.00037905269507 -7.5948434896e-05 
-0.0015426423387 -0.00012810685165 -0.00045581219858 -0.00010870092547 -0.00082927224319 0.0010206273049 0.00048202409072 -0.00047018096519 0.00043655216383 
0.00093090247706 5.9687633703e-05 -5.4174360675e-06 5.7377914058e-05 -0.0001535179245 0.00010001667663 -0.00041540919493 -0.0010156040397 -0.00022746391471 
0.00047218801769 -7.5425230883e-05 -0.00049654688887 -0.00037603638513 -0.0004854935087 2.6297696616e-06 0.0010453920624 -0.00029293882155 6.0837455891e-05 
-0.00062904319599 -0.00031503212515 0.0001278083539 0.00054982398565 -0.0010060424492 0.00061456370987 0.00025844745842 -0.0003444833269 0.00088588917069 
-0.00028427193776 -0.00084090921629 -6.6821570228e-05 0.00035774573301 -0.00049394264614 4.1662612672e-05 -0.00031759766914 -0.0010360951456 9.1051436351e-05 
3.9539827902e-05 -1.9601978945e-05 -0.00070322200347 -0.00014035469128 -0.00089750497571 6.4781425141e-05 -0.00048447503098 -0.00077554171158 0.00018709261675 
0.00022434295898 0.00057928109527 4.5788966872e-05 -0.00059608357179 -0.00062895499831 -1.3769163691e-05 0.00047868290377 -0.00076213045563 -0.00020381448427 
0.00045082380976 -0.00037834500719 2.2357836533e-05 0.00025565089913 -0.00089997106087 0.00028856517081 0.00013642733103 -0.00076219514368 -1.7310843063e-05 
0.0001945843542 -0.00069875646122 -1.7140289211e-05 2.4179267773e-05 -0.00083549399111 -9.9616592876e-05 3.3525699691e-05 -0.0010973064302 9.8435906231e-06 
0.00017067342602 -0.00099281147528 -2.6740565338e-05 -0.00024321347574 -0.00085024139802 -0.00012633975591 0.00089256335762 -0.0007721439432 -6.5038103373e-05 
0.00042492431562 -0.0014608203343 -2.1264365276e-05 -0.00078942434414 -0.0021212621593 -8.5991717184e-06 -0.00010458944699 -0.00072393222928 0.00042263611755 
-0.00018468850109 -0.00068632228204 0.00089060639563 0.0001746025969 -0.00083548857087 8.0108596499e-05 0.00019714292674 -0.0012691183276 -2.7097016504e-05 
0.00017110870714 -0.0010035076095 -0.00055533232935 0.00032428899751 -0.0012542449279 3.1470227141e-05 -2.0625223726e-05 -0.0014391773218 -8.9503889965e-06 
0.00036091755514 -0.00044292796158 -3.7692990123e-05 -0.00041807541339 -0.0008211141392 -0.00035595147651 0.00037692239216 -0.00099832702533 -0.00027488847757 
0.00032597396142 -0.00078255087132 -1.9649714534e-05 0.00028541139511 -0.0014558466076 -6.459231319e-07 -2.754475914e-05 -0.0013105316432 -0.00028715378459 
0.00040096440294 -0.00093892676798 9.7611292302e-05 0.00049337040298 -0.0013526089508 3.4704071599e-05 0.00021025443913 -0.0013842925524 -0.00010489975869 
0.00027310781636 -0.0015628471752 -0.00013307088511 0.00057172874164 -0.00069895363702 -8.7730466237e-05 0.00014183483629 -0.0010738193086 -0.00026587202544 
-0.00015251010943 -0.0013543205649 9.1168553547e-06 0.00054563166718 -0.0010979276295 -0.00023708533662 0.00037885254336 -0.0010576848166 0.00025116911241 