# vtk DataFile Version 4.1
vtk output
ASCII
DATASET UNSTRUCTURED_GRID
POINTS 1274 float
0.512707 0.554529 0.0379518 0.469423 0.651419 0.105388 0.487653 0.598543 0.268458 
0.494663 0.58777 0.0990901 0.423552 0.756248 0.0323155 0.424302 0.768822 0.119427 
0.475413 0.637798 0.212948 0.459487 0.670504 0.268649 0.393727 0.845596 0.0589269 
0.398267 0.813089 0.164573 0.44566 0.699941 0.215062 0.432554 0.73943 0.265757 
0.36269 0.90315 0.03197 0.343452 0.968935 0.0518368 0.381137 0.878867 0.146412 
0.394662 0.844747 0.231927 0.34515 0.95803 0.260055 0.313724 1.03979 0.0387195 
0.390299 0.914225 0.0866378 0.447502 0.899402 0.110134 0.33203 0.996697 0.129967 
0.408714 0.915516 0.218481 0.310238 1.03816 0.265121 0.351844 0.929891 0.187755 
0.281287 1.10263 0.0483562 0.327873 0.988064 0.20067 0.286423 1.10868 0.260298 
0.257482 1.1631 0.0336643 0.356931 1.11614 0.104413 0.301703 1.06934 0.10944 
0.289745 1.25246 0.0382188 0.302722 1.04573 0.200307 0.2834 1.1009 0.172446 
0.333082 1.25589 0.092663 0.384647 1.15829 0.0374938 0.275429 1.14876 0.110301 
0.421404 1.1503 0.106509 0.260554 1.15087 0.20863 0.339974 1.10739 0.211343 
0.218594 1.25636 0.0332148 0.319741 1.18653 0.0543024 0.31949 1.15715 0.173661 
0.244607 1.19936 0.164591 0.287483 1.18339 0.26484 0.238923 1.22249 0.0938014 
0.371714 1.23218 0.0356631 0.236442 1.23049 0.236453 0.215574 1.25702 0.14977 
0.54124 0.470083 0.0302095 0.611612 0.295463 0.0943403 0.595501 0.358823 0.121422 
0.596832 0.34781 0.197649 0.576054 0.388964 0.266501 0.610085 0.314409 0.261891 
0.540714 0.469972 0.209778 0.508557 0.55821 0.219121 0.603376 0.328942 0.0358989 
0.56662 0.417646 0.159297 0.483766 0.624625 0.0384114 0.609848 0.475825 0.0479442 
0.545916 0.475145 0.0985082 0.549505 0.448295 0.268474 0.565137 0.572115 0.262771 
0.527372 0.512568 0.159557 0.550611 0.669101 0.0308597 0.445281 0.711735 0.0785828 
0.517448 0.698101 0.106421 0.471357 0.753938 0.178185 0.551089 0.548297 0.101221 
0.523085 0.658974 0.266702 0.44617 0.697371 0.146083 0.414734 0.778099 0.214384 
0.500965 0.681426 0.170101 0.55433 0.577582 0.168504 0.49404 0.780756 0.0920637 
0.53533 0.761058 0.146311 0.458615 0.815168 0.0363746 0.508334 0.724945 0.0397541 
0.484319 0.81838 0.150723 0.43662 0.836141 0.113047 0.364345 0.894661 0.269731 
0.499217 0.769855 0.260788 0.538557 0.617932 0.219253 0.563217 0.748171 0.220245 
0.467686 0.816152 0.213557 0.506572 0.706518 0.226654 0.459774 0.889865 0.0400734 
0.520326 0.854295 0.0354106 0.535569 0.791613 0.0326232 0.453942 0.87623 0.17769 
0.495053 0.8505 0.0953791 0.464847 0.870611 0.260663 0.4386 0.804308 0.269008 
0.416793 0.952231 0.0373622 0.373479 1.09001 0.032588 0.465862 1.00511 0.0331274 
0.400348 0.997271 0.0949118 0.415466 0.948593 0.15075 0.468101 0.964708 0.0912713 
0.485381 0.94146 0.262257 0.419593 0.973009 0.26148 0.534963 0.98382 0.2689 
0.45991 0.952601 0.203212 0.383663 1.02493 0.0323971 0.365393 1.05519 0.0849625 
0.463492 1.03263 0.0903104 0.362698 1.0635 0.158391 0.395355 1.00511 0.196854 
0.441606 1.0515 0.264238 0.377032 1.02956 0.267487 0.483222 1.004 0.236272 
0.456787 1.13669 0.0385421 0.470507 1.08358 0.123156 0.427246 1.0425 0.138908 
0.361008 1.09083 0.269156 0.526325 1.17899 0.175344 0.489752 1.10282 0.267773 
0.407814 1.08872 0.213275 0.429589 1.13409 0.264219 0.445404 1.12084 0.166831 
0.358942 1.16095 0.260112 0.511047 1.18737 0.0384075 0.498529 1.14728 0.119733 
0.436646 1.20646 0.0341931 0.369621 1.20207 0.101077 0.38116 1.13377 0.166345 
0.33889 1.23729 0.260951 0.4533 1.16807 0.207732 0.402451 1.20693 0.221173 
0.469287 1.1913 0.266121 0.487384 1.25532 0.0362705 0.312482 1.21279 0.137359 
0.46023 1.24947 0.225812 0.300304 1.21327 0.204025 0.474515 1.21247 0.169785 
0.373076 1.22935 0.163496 0.639553 0.231602 0.179418 0.56414 0.412755 0.0315791 
0.660025 0.192963 0.0566371 0.661143 0.287499 0.213123 0.640181 0.241084 0.26351 
0.668935 0.174472 0.20719 0.642678 0.22357 0.115574 0.631551 0.406118 0.0363491 
0.592223 0.423069 0.0894532 0.526969 0.509927 0.265847 0.605523 0.486995 0.262883 
0.617351 0.29118 0.159151 0.639273 0.377487 0.246141 0.613697 0.460301 0.136438 
0.587783 0.546819 0.0375197 0.660495 0.423607 0.101578 0.534133 0.636318 0.131858 
0.60468 0.528762 0.146733 0.575777 0.524592 0.21178 0.59261 0.433525 0.220486 
0.613536 0.623858 0.266299 0.603675 0.718178 0.0390313 0.555297 0.610304 0.0646873 
0.569477 0.734122 0.0987264 0.566491 0.698018 0.15771 0.599898 0.710149 0.268228 
0.591579 0.634412 0.174569 0.644236 0.640491 0.21113 0.571996 0.672064 0.224554 
0.59709 0.758698 0.159937 0.587019 0.666412 0.0959072 0.639197 0.787698 0.0390307 
0.56166 0.796803 0.0909112 0.541452 0.814104 0.189913 0.545272 0.832034 0.261832 
0.616167 0.774592 0.265252 0.515567 0.873095 0.21096 0.6254 0.70887 0.201198 
0.600464 0.821267 0.221511 0.584877 0.837468 0.0349475 0.560833 0.860244 0.0929461 
0.566 0.909334 0.0397006 0.503978 0.943435 0.0315442 0.552088 0.909451 0.260437 
0.598253 0.967078 0.265548 0.528515 0.862784 0.146425 0.505692 0.923379 0.17194 
0.53542 1.00302 0.0511839 0.522745 0.916146 0.105802 0.473331 1.05909 0.189693 
0.468701 0.995544 0.154966 0.537452 0.988554 0.137729 0.518051 1.04662 0.269178 
0.570608 0.944491 0.192206 0.436512 1.06633 0.03478 0.538684 1.12403 0.0335691 
0.573035 1.06447 0.0351737 0.504114 1.06464 0.0328709 0.552231 1.10764 0.0955579 
0.522995 1.05006 0.104488 0.542776 1.00831 0.209089 0.503093 1.12536 0.204822 
0.538679 1.23382 0.0892832 0.574299 1.21156 0.0322879 0.56389 1.1765 0.123071 
0.522923 1.09097 0.152817 0.604846 1.08699 0.268671 0.540241 1.23771 0.159345 
0.534065 1.21121 0.237501 0.566925 1.12975 0.180167 0.556962 1.07286 0.214643 
0.553581 1.13651 0.259467 0.639922 1.20729 0.0428552 0.622075 1.20941 0.110242 
0.464922 1.21459 0.100737 0.647663 1.23566 0.221516 0.595648 1.19839 0.186293 
0.773291 1.16752 0.205888 0.678963 0.130933 0.0402527 0.693131 0.11994 0.113323 
0.721562 0.0322011 0.192891 0.682114 0.134013 0.265513 0.697728 0.0947845 0.18203 
0.636814 0.262268 0.0387354 0.695851 0.315478 0.0396676 0.702219 0.225426 0.15046 
0.70444 0.266307 0.267353 0.640198 0.406028 0.174012 0.695321 0.199717 0.267446 
0.678662 0.327026 0.266693 0.663024 0.336171 0.137877 0.67983 0.458106 0.0415523 
0.65862 0.494791 0.0970819 0.651875 0.356396 0.077659 0.685872 0.466609 0.158012 
0.649842 0.461228 0.216904 0.68185 0.27846 0.104416 0.729188 0.411957 0.197689 
0.690707 0.353752 0.201326 0.611746 0.64452 0.0351632 0.66149 0.525006 0.0349321 
0.63551 0.558096 0.0890823 0.595414 0.599826 0.119958 0.64806 0.606707 0.156685 
0.663894 0.683352 0.262133 0.638443 0.545832 0.269081 0.687189 0.582018 0.207278 
0.61712 0.578253 0.20901 0.673332 0.546527 0.150136 0.67792 0.515827 0.206279 
0.629144 0.714805 0.122632 0.658307 0.654101 0.0919634 0.69737 0.572514 0.0975115 
0.708771 0.626782 0.139568 0.71717 0.647016 0.206641 0.661247 0.822738 0.268702 
0.665412 0.671662 0.159874 0.62423 0.80223 0.11696 0.647778 0.875959 0.0391006 
0.689492 0.760986 0.079427 0.708278 0.701777 0.0855597 0.680501 0.762551 0.149002 
0.637411 0.775078 0.20312 0.696935 0.715535 0.205004 0.613478 0.867634 0.265677 
0.582772 0.871625 0.18235 0.614987 0.968631 0.0372508 0.668594 0.984242 0.0765158 
0.630646 0.868317 0.106331 0.643924 0.926624 0.0884384 0.587005 0.907425 0.125412 
0.610001 0.966763 0.138938 0.63489 0.984127 0.209851 0.677642 0.848491 0.147902 
0.635584 0.922017 0.233693 0.64351 0.864286 0.207708 0.632666 0.915853 0.169075 
0.630625 1.10735 0.0300645 0.641973 1.03923 0.0397177 0.694414 1.09166 0.0358783 
0.574819 0.956119 0.0907174 0.594527 1.02038 0.0955814 0.667573 1.042 0.11564 
0.578062 1.03019 0.260418 0.614068 1.02471 0.161812 0.672276 1.03067 0.184005 
0.616471 1.08916 0.0909494 0.622712 1.14284 0.138303 0.69685 1.16458 0.0370849 
0.595363 1.15327 0.0646765 0.582231 1.077 0.146383 0.624031 1.05558 0.216994 
0.741368 1.13139 0.0835294 0.636309 1.13235 0.223628 0.661182 1.09179 0.167673 
0.603607 1.1948 0.26361 0.749265 1.21181 0.033559 0.791279 1.18119 0.101073 
0.689733 1.16905 0.106131 0.673288 1.19808 0.168476 0.677301 1.18681 0.260928 
0.721788 0.0830017 0.0341636 0.753657 0.121675 0.0765954 0.71796 0.0495712 0.118698 
0.783915 0.0581544 0.126172 0.723485 0.0413951 0.26252 0.735413 0.105086 0.243073 
0.707637 0.241831 0.0350554 0.750829 0.18159 0.0391977 0.768383 0.265895 0.0304539 
0.736516 0.178499 0.110532 0.727597 0.156522 0.172532 0.756166 0.167089 0.263416 
0.773981 0.229882 0.155153 0.769754 0.242673 0.262501 0.731734 0.209472 0.212748 
0.703244 0.391112 0.0363935 0.765395 0.327679 0.0314098 0.720615 0.333375 0.103397 
0.747423 0.251734 0.0925626 0.733027 0.41833 0.0925695 0.764677 0.373741 0.127332 
0.703748 0.387119 0.14098 0.748083 0.319845 0.263464 0.734041 0.281326 0.197236 
0.6971 0.420343 0.260497 0.726433 0.512919 0.0872189 0.752113 0.463475 0.0378112 
0.797001 0.483975 0.0864944 0.755083 0.468822 0.135354 0.790281 0.419144 0.170572 
0.675296 0.493214 0.266646 0.804191 0.511738 0.264171 0.773364 0.400006 0.260577 
0.741121 0.480824 0.246283 0.718354 0.547963 0.263651 0.669892 0.598463 0.0391239 
0.694 0.66444 0.0315314 0.737516 0.532577 0.175817 0.761484 0.580692 0.121863 
0.678993 0.613329 0.2674 0.752921 0.585214 0.21653 0.743575 0.621603 0.267491 
0.673513 0.723912 0.0321461 0.747806 0.747832 0.111892 0.758159 0.691523 0.0384877 
0.72798 0.754747 0.0312108 0.748233 0.655256 0.0971674 0.740219 0.692781 0.261123 
0.688297 0.816139 0.208846 0.727207 0.691564 0.146954 0.751667 0.744597 0.178775 
0.694323 0.744087 0.269539 0.702102 0.933427 0.039981 0.717526 0.852516 0.0346101 
0.681622 0.824173 0.0844064 0.694203 0.887422 0.0953024 0.739816 0.80941 0.159486 
0.738176 0.837522 0.260085 0.733437 0.774518 0.229784 0.68121 0.885319 0.265523 
0.712528 0.877149 0.207232 0.688124 0.950433 0.268913 0.7177 1.01973 0.0398208 
0.72569 1.06818 0.0895872 0.728055 0.951393 0.107507 0.689469 0.946274 0.205792 
0.672052 0.975226 0.138864 0.69296 0.917532 0.150355 0.730833 1.00843 0.155112 
[...]
POINT_DATA 1274
FIELD FieldData 10
VELOCITY 3 1274 double
0.0006613774977 -0.0011537974074 -0.00021036537722 5.4723461417e-05 -0.00076757192408 -0.00041395522216 0.00050653010145 -0.001201974436 -4.5678220433e-05 
0.00022851821744 -0.0013181770994 0.00092604867104 0.00021650385109 -0.00072873604615 -0.0001463105958 0.00018589776051 -0.00038096027583 0.00069145071842 
0.00022224759491 -0.00066347405773 -0.00013271234362 -0.00065337542234 -0.0011985657617 5.4851849004e-06 0.00052451670017 -0.0012870044033 -0.00042579435676 
0.000389175074 -0.0004634781926 4.1782352568e-05 0.00046283701449 -0.0010835438385 -0.00018162337461 0.00043346633511 -0.001136279285 1.4951689981e-05 
0.00045491909808 -0.0011366703981 -7.3355755628e-06 0.00043595633686 -0.0010208779211 0.0002878011452 0.00016823294617 -0.00060869734106 0.00016113285271 
0.000356937169 -0.00079889746455 -6.3042127929e-07 0.00030760667404 -0.0007808713109 4.1226709589e-05 0.00044906259479 -0.0011000235716 1.9219191235e-05 
0.00053952732465 -0.00089979100342 -7.4961176717e-05 0.00056769693501 -0.00058961574176 -0.00018634948958 0.00038232970713 -0.00089244732544 -7.651653141e-06 
9.8806609229e-05 -0.00085084738664 0.00021791438134 0.00022596736632 -0.00053804966852 -0.00016723267122 0.00022416151924 -0.00054216910462 -0.00012912720371 
0.0004612604913 -0.0011243055658 0.0001279344073 0.00031608120096 -0.00061779111081 0.00014783766248 0.00021711256759 -0.00056844706533 3.0192932748e-05 
0.00048783983513 -0.0011779342767 -7.5138337664e-07 0.00049997716848 -0.0010267864806 -0.00085275237338 0.00030865971994 -0.00067112513228 -0.00056487306293 
7.2983573978e-05 -0.0013471141685 2.1082102172e-05 0.00023553644764 -0.00065800348698 -2.0523603258e-05 0.00028600305205 -0.00070960230465 -0.00016858512638 
0.00036280171849 -0.0010636736843 -0.00024842308171 0.00074049959567 -0.0011603971391 0.00019302529266 0.00029998963938 -0.00069471974709 -0.00018266004297 
0.00042318035257 -0.00095700117729 -7.8747050014e-05 0.00033682630961 -0.00071971759593 -0.00018394430414 0.00014480148533 -0.00072408007018 -0.00016816736469 
0.00015187328781 -0.00034671491165 4.8338847398e-06 0.00062116640077 -0.0011769492806 -0.00028702019094 -3.9371763174e-05 -0.00073800705694 9.4640366359e-05 
0.00029091621884 -0.00073782467022 -0.00015910567837 -2.9076084826e-05 -0.00054759153022 -1.5702605266e-06 0.00028704922478 -0.00071661079419 -0.00025121431258 
0.00065962958276 -0.0011644087895 -3.22090835e-05 0.00013659309983 -0.00033336577739 1.2254827505e-08 0.0003028616324 -0.00074243569867 -0.00022715888123 
-0.00024716267408 0.00051277318048 2.4206238699e-06 0.00098139692384 0.00019345466572 0.00015851136195 -0.00036501457812 -0.00018369160978 0.00018372141578 
0.00041026192511 -0.00057759311096 0.00041303021153 -0.00024296537332 -0.0016733314119 -0.0017399052435 0.00016890987015 -0.00067418241531 0.00035397689755 
4.763990835e-05 -0.00021660000985 0.00038274137115 0.00066740053473 -0.00092082801718 -0.00029681182972 0.00011820883915 -0.00025215959724 7.6052997091e-06 
0.00035811460093 -0.00020162446387 -9.5538411426e-05 0.00055121566689 -0.0013439973839 -0.0013203832013 -0.00021573623023 -0.00097201835443 -0.00048938886018 
-0.00029819820789 -0.000650264726 0.00026447143014 0.00068639153995 -0.00016986408918 0.00017589263006 0.00017638324445 -0.0007021321416 7.7914074006e-06 
-0.00011713445055 -0.00025408123072 -0.00018631323385 0.00032764929363 -0.0011137292316 -3.8830855237e-05 -7.7853222902e-06 4.2312592254e-05 0.0004166362535 
0.00022750582734 -0.00051848166939 0.00052495541946 0.00036755480969 -0.00074853587263 -4.4249959544e-05 0.00057317231234 -0.00034376569363 0.00031411015336 
-0.00071807116778 -0.0012331114846 3.5990274526e-05 0.00015356836912 -0.0003920968282 -0.00029002605435 0.00016275416877 -0.00082811556921 0.0001296137857 
0.00014420120499 -0.0010220765502 -0.00037878507285 0.001217341678 -0.00044066259865 -0.0001045105633 6.0592123351e-05 -0.00090705513405 -4.5430520702e-05 
0.00071977121813 -0.0017283625041 0.00084919299211 0.00085461953887 -0.0009396827926 -5.0629427923e-05 0.00044277432005 -0.00099114240224 0.0001233208322 
0.00039518211479 -0.00082648235959 0.00025993386497 0.00064163373547 -0.00057400487156 -0.00038550736545 0.00036446623158 -0.00080772591283 4.9079876281e-05 
0.000211781216 -0.00065150547226 -0.00023082111528 0.0002701879736 -0.00029240716115 -0.00066051451349 0.00064890100424 -0.0014759090791 0.00026355421514 
0.00038160446565 -0.0009895850112 0.0003068459498 0.0003724433504 -0.00084128007792 -6.880395596e-05 0.00024312133772 -0.00089750385106 0.00010122817114 
0.00016860029393 -0.0010007920567 -0.00047221271328 1.1654645042e-05 -0.00089062895189 -3.3842744351e-05 -7.8457875861e-05 -0.00083892546816 -9.5120917392e-05 
0.00053558995367 -0.0010295035768 -0.00035179818927 -0.00054277164253 -0.00065584466054 -2.3516268784e-05 0.00014953140325 -0.0011149399091 6.3826262475e-05 
0.00064095272654 -0.00059476561622 -7.1663769142e-05 0.00021346828203 -0.0010227653796 2.4894741413e-05 3.5557401485e-05 -0.00098759774304 5.9336691133e-05 
0.00023156401976 -0.0010674615619 0.00030080579632 0.00064024019951 -0.00089341799598 0.00037612329647 0.00063633800425 -0.00046097397465 0.00038278198527 
5.3735680117e-05 -0.00081301293003 0.00065952145657 0.00035668820359 -0.00050185290052 -0.00018084180882 0.00024307960336 -0.00098207180353 -7.1400944507e-06 
0.00093503719054 -0.0016089164713 0.00010780644362 1.6068719927e-05 -0.00079862682324 8.6495246896e-05 0.00016528704406 -0.0012548260718 -0.00022794774987 
-0.00014264469388 -0.00063688089363 -9.5093720987e-05 0.00011551665897 -0.00084544293911 0.00011229390864 0.00025949123517 -0.00068368811238 -1.0080584384e-07 
0.00029862990543 -0.00058267223732 -2.0048828291e-06 0.00015002364656 -0.00078654799872 0.00030613327925 3.7869030233e-05 -0.0010245049552 0.00027603852396 
0.00080817845803 -0.001087302774 8.4467770086e-05 -0.00040985258756 -0.00052524600948 -0.0002712325853 0.00018318873089 -0.00077284827416 0.00022507721732 
-5.2709266082e-05 -0.00077334449209 -1.2385873357e-05 0.00063812511069 -0.000905780286 0.000356501875 9.910339683e-06 -0.0010221317011 -2.9955085316e-05 
-8.4615133486e-05 -0.0007726858517 0.00011555240429 0.0001855733452 -0.00069694374008 -2.3022373297e-05 -8.4140494472e-05 -0.00084814440204 0.00012548141492 
-0.00012618207715 -0.00078751289577 -5.1510180759e-05 0.000176336457 -0.00047288436021 -6.0645063762e-05 0.00039878701781 -0.0007717050584 0.00033351957438 
0.00069587399932 -0.0010390295316 2.1537853851e-05 0.00040066594944 -0.0010294963893 -0.00013545829419 -4.8929651682e-05 -0.00063680155193 -0.00032801535498 
-1.9562400127e-05 -0.00074356966995 1.1745329929e-05 2.246982999e-05 -0.00078564599312 9.2379801493e-05 0.00015290774119 -0.00060689612735 0.00056570551639 
-7.6825447097e-05 -0.00055525031195 1.5448833653e-05 0.00017195080982 -0.00051449454614 1.4937218942e-05 0.00024991091104 -0.0007612233886 -1.7728947517e-05 
0.00032638343927 -0.00070159126299 -0.00022766397011 -1.0064765186e-05 -0.00070423200886 -5.8766592649e-05 0.00048645715092 -0.0011411094979 9.474797859e-05 
0.00040408661804 -0.0015120026042 8.4046612707e-05 -0.00014040024272 0.00012298429218 5.6859670218e-05 -6.5643479877e-05 0.00067824383376 -0.00013832619169 
-0.00012920658 -8.2703955293e-05 0.00039127408985 -0.00028947353794 -0.00056915853075 -7.2864468524e-05 -0.00020764781912 0.00045865813097 0.00065748060027 
-3.9180544934e-05 0.00030802513711 0.00042925806347 0.00010520145992 -0.00041149174334 0.00084111427543 -0.0017815219455 -0.0018410535157 0.00020431158526 
0.00067159319201 -0.00014832426951 0.00012737346192 -0.00031494535302 -0.00040873614272 0.00014542995055 0.00050255499314 -0.00085154835102 0.00014542020391 
-0.00047057074152 0.00053957514319 0.0002169459393 0.00010117988382 -0.00010867910863 0.0015591535714 -0.00023046475955 -0.00039619713263 -0.0010219436408 
0.00054777251838 -0.0006653335848 2.3839645298e-05 0.00093345435432 0.00031597229133 -0.00039662957709 0.00071115523428 -0.00081756846678 -0.00082758896224 
0.00036181323751 -0.0010413055136 0.00095978459086 0.00047898867786 -0.00064858822295 3.3069366884e-06 0.00028289768968 -0.00046966982657 -0.0003238768631 
0.00039367415615 -0.0012036666533 -6.3032907592e-05 -0.00032802228838 -0.0012547233324 -0.00012116937087 -0.00026777965161 -0.00060105544791 0.00026951880323 
0.00063355447005 -0.00021383279174 -5.5717997064e-05 0.00019813245647 -0.0009561266266 0.00053374743348 0.00025721075637 -0.00097745119108 8.1150379984e-05 
0.00077787380669 -0.00075976510058 0.00041814082615 0.00080385603948 -0.00099812911277 0.00015226887753 -0.00031054720317 -0.00038316062726 -0.00024167187245 
-0.0015005765782 0.00044260922349 -0.00019102601268 0.00027311045478 -0.00037685673044 -0.00011945012073 -6.1904648409e-05 -0.0011006981211 2.4607417288e-05 
0.00037371559616 -0.0014545646053 -2.3673942417e-05 -0.00074031887189 -0.00055090076836 -8.8014824501e-05 0.00010926432401 -0.00083731353906 -7.6059707271e-05 
2.3971232058e-05 -0.00047815461078 5.9249894478e-05 -0.0001787246672 -0.0008155230865 0.00027841049383 0.00026995665572 -0.00090872025241 0.00040732390289 
6.1566880435e-05 -0.0013455943774 -3.599627086e-05 0.00033053245195 -0.0007701753069 -0.00058512449976 0.00027714174041 -0.0014935333781 -0.00018046721347 
-0.00026683321208 -0.00093626491598 4.170707529e-05 -0.00011541993785 -0.00065721704114 -0.00020095661865 0.00016517446077 -0.00081612926591 -3.0390126099e-05 
0.00029778726432 -0.00086873974001 0.00011135220532 0.00017020143666 -0.00079168640419 -0.00028811732066 0.0004266848193 -0.0014765960241 -0.00079493482755 
0.0006762991402 -0.0011296342449 3.4908687596e-05 0.00030799062425 -0.0013623975317 -0.00089583338587 4.065213359e-05 -0.0008869333789 0.00054881423584 
0.00045398796364 -0.00063160405719 -4.3943556202e-05 0.00043173433448 -0.00067100153359 -0.00013828865349 0.00024856318992 -0.00093844065363 -1.9205327251e-05 
-3.9660274278e-05 -0.0006296572836 3.8863100477e-05 0.00017253300617 -0.00093145988971 -0.00015367063882 4.2283097372e-05 -0.0005700981831 3.6503937675e-06 
0.00029252632565 -0.00089327470842 2.5959368521e-05 0.00012160460939 -0.0013335516402 2.2516528291e-05 3.9859530436e-06 -0.00076208740217 -0.00015361733351 
-0.00012184594222 -0.00075038152577 -0.00014870135111 -0.00013632512336 -0.00084069995395 -0.00012731890681 -7.230654933e-05 -0.00068530498814 1.246974574e-05 
0.00031027222545 -0.00073202721604 -7.8312180822e-05 0.00032497581199 -0.00089418553086 -8.723617027e-06 0.00037906579404 -0.00086651056941 -0.00028877354174 
-0.00020320910953 -0.0013135842046 -7.707590009e-06 0.00038299095889 -0.00085934717976 5.3628008928e-05 0.00036864259209 -0.00085766582469 -7.0960312175e-05 
0.00010629262668 -0.00054433154009 0.00019509725678 0.00029702598432 -0.0012205391225 -0.00068578329131 0.00018470241466 -0.00085740734194 -6.6805353138e-05 
9.4955998028e-05 -0.0011660502547 -3.8586662827e-05 0.00031955648983 -0.0011069408303 -0.00013767263936 0.00053662629391 -0.00098581189919 -7.9633225397e-05 
0.00036084215913 -0.00088479979234 0.00013792386189 8.0881488186e-05 -0.0010464123849 -0.00011210929224 0.00012021982151 -0.0011945241002 -3.5546964647e-05 
6.1803053431e-05 -0.0016009590827 -7.7327486926e-05 -4.974919963e-05 0.00010915621255 -0.00044060447984 3.5860184605e-05 -0.00010810358782 0.00045302786148 
-6.5647670293e-05 8.6251856767e-05 0.00087633085678 0.0001053348281 -0.00090842253111 -0.00026507788845 -5.8320764958e-05 0.0002496243763 0.00088872683426 
-0.00048901105787 -0.00050342706216 -6.7262767644e-05 -0.0001853787502 -0.00034343764945 -0.00044461029953 -0.00024380965755 0.00064244690358 0.00047336904846 
0.00029415916511 -0.00042402319444 -0.00059202697391 -7.0564166874e-05 -0.00064697721404 -0.00061152169794 -8.3996035337e-05 -0.00041266920217 -5.7604815072e-05 
0.0012725976003 -0.00016659736786 0.00014802008981 -0.00040829828236 -0.00091993155462 0.00036246437863 -0.00065508169648 -0.00053328469245 -0.0012614471844 
-0.00070873037872 -0.00046131315333 5.3266516722e-05 0.00055131300635 -0.00085759863459 0.00010273097364 -0.00024446029098 -0.00038082567508 -0.00035372140584 
0.00036737217804 -0.0010431650784 2.6363327991e-05 0.00079851500761 -4.0236839412e-05 1.4394877462e-05 0.00017852950379 -0.00021064080512 0.00015723866206 
-0.00013932228216 0.0013683399511 0.00056593448379 0.00058072000799 -0.00092466177808 0.00023399685113 -0.0016064923448 -0.00059859757503 -0.00023928359231 
0.00021600163582 -0.00017224344232 0.00022218090709 0.00059286563809 1.3154979722e-05 -0.00025095012667 0.00040599927788 -0.001303526906 0.00031620547436 
0.00055869376483 -0.00070491825182 6.7579216187e-05 0.00082921750666 -0.0010361457973 9.2423712124e-06 0.00042026655105 -0.0007857541645 0.00018829310116 
0.00037745396674 -0.00061587487332 0.00039975705296 0.0006618112841 -0.00021986851991 4.6673988797e-05 0.0012202319869 -0.00082846236178 0.00022130528799 
0.00082293596363 -0.0010977924503 0.00015075427699 0.00040008834055 -0.0013308160919 0.00078695669887 0.0003914733538 -0.0016813703307 -0.00037404836121 
0.00039717422713 -0.0010038746559 0.0010821409946 -0.00016075673074 -0.00049256565418 -0.00043681782789 0.00087366017167 -0.0015582025919 -0.00052012946197 
0.0005701866996 -0.00045644338001 0.00071720551684 0.00063191962129 -0.0012454640892 0.00039110083311 0.00044227849558 -0.0012022185079 1.5478921556e-06 
-1.2127801198e-05 -0.0016484927505 -3.1616950613e-05 0.00013655242955 -0.0010835563855 0.00065203949277 0.00012938933526 -0.00015940482712 -0.00013206595607 
0.00065181059862 -0.0018347927312 0.00011645081246 0.00024905334843 -0.00044750608043 9.4762045326e-05 0.00062076245224 -0.0015867921269 5.5456968231e-06 
-0.00018527978073 -0.0010598384376 0.00060403275578 -6.054594492e-06 -0.00096761321348 8.7963150286e-05 -7.6244562998e-05 -0.00069999877377 -0.00025171815521 
0.00048650019799 -0.0010446583579 0.00012546869523 0.00046081943182 -0.00095375938437 -0.00023054850757 0.00024704772898 -0.00091883310597 -0.0006935347363 
0.00035108656499 -0.0011947278065 0.00010481213161 0.00039215921752 -0.0008441557661 3.2946461123e-05 0.00086691662811 -0.0012499600313 -0.00010367258627 
-6.8003900665e-05 -0.00090583655681 -0.00026902722626 -4.1807327548e-05 -0.00192320808 -0.00031896022097 -0.00021058242275 -0.0015897921036 5.1624677454e-05 
0.00067604284419 -0.00030360141483 -1.0343592363e-05 0.00026590045222 -0.00097261261844 -0.00046820356086 0.00034726072119 -0.00099118233962 3.3972477956e-05 
0.00025933378595 -0.00075086513083 -0.0001466608262 0.00067027765518 -0.00093867171796 -8.3072029228e-05 0.00024921869196 -0.00068200462979 -0.00021613241721 
0.00026652920034 -0.00079715292394 -0.00012909054813 2.0575318868e-06 -0.00098982578322 7.3352289207e-05 -7.1540107567e-06 -0.0012000637313 -0.00038792050566 
8.512333795e-05 -0.00087437413591 -0.00036451488058 0.00022462275451 -0.0010304500396 -0.00018007494148 0.00043565572621 -0.00096395393489 4.9031540343e-05 
2.6455423228e-05 -0.00065006773205 0.00015326835828 -0.00030613741192 -0.0013971847152 -0.00066712718323 0.00029387565099 -0.00081592563909 -5.7323769966e-05 
0.00059680427746 -0.001105833671 -0.00029140561473 0.00027057283383 -0.00090663813546 -9.8281380508e-05 9.5728269811e-05 -0.0010928876292 -7.5298505729e-05 
3.4734764775e-05 -0.0010268374322 2.8914110365e-05 0.00056441996545 -0.0011214034268 -2.8193008024e-05 0.00090841373196 -0.0017397879589 0.00064617784999 
0.00091169997962 -0.00078429245018 9.7801311369e-05 0.00016240994918 -0.0014835608504 0.00019225261621 7.6066277491e-05 -0.00087362327496 0.00011814717629 
0.00054898549229 0.00036423735354 -8.3162600358e-05 0.00031207733282 -0.00051817408999 0.00071858961538 -1.3414179231e-05 -0.00019329419182 0.0011244039999 
-0.00079621598354 -0.0013051906901 0.00089946452557 0.00019092743896 -0.00036845970626 4.8438121652e-05 0.00068379709802 0.00048052091593 0.00048558386242 
0.00057447457028 8.3962095952e-05 0.0016573404503 -0.00067409360137 -0.0010053545348 -0.00044524503605 0.00029332192311 0.0015089497216 -0.0011147139037 
0.00015808507894 -0.00032446561482 0.0010015751664 -0.00044323934237 0.00011002576139 -0.0005584381103 0.00030826977878 -0.00011374186222 2.0841409639e-05 
-0.00020930000873 -0.00053984976012 -0.00051339568318 1.2604811229e-05 -0.0013496769663 0.0010893659084 0.00023006817498 -0.0002681413513 5.8068051394e-05 
0.00069358313429 -0.00012127922023 0.00038550436447 0.00058468261361 0.00013328783711 0.00061375841326 0.00076308083532 -0.00023236453688 -9.8635480194e-06 
0.00029542632169 -0.00058716958727 -0.0001805569075 0.00079008249231 -0.0008328715803 3.3294133567e-05 -8.2647108261e-05 -0.00038342706203 0.00075178302304 
-0.00010959643481 -0.00059393553512 -0.00019070370652 0.00021269304055 -0.00055259815626 4.8462448667e-05 -0.00075994460332 -0.00038301829772 -0.00059185005037 
0.00026320581667 -1.7585831761e-05 7.5096602834e-05 -0.0004951218785 -0.00093526335417 0.0011857149359 -0.00084578715915 -9.8389925766e-05 -1.7948921448e-05 
-0.0012169832578 -0.00031612611739 -0.0003982450752 0.00059515372335 -0.00026410491548 0.0012882560853 0.00050351253934 -0.00041243236421 0.00071739510395 
0.00037483016389 -0.0021334789352 2.1448431996e-05 0.00037271212438 -0.00043377001259 0.00034261088136 -0.00012947681845 -0.0016500511659 -0.00023896236508 
0.0003836184698 -4.055953119e-05 -0.00033187092537 -1.1299251448e-06 -0.00071490988687 -4.6814680002e-06 0.00044936491957 -0.00064544062304 6.3250498186e-05 
-0.00030652879767 -0.00028625387658 0.00028467787462 0.00062335136235 -0.00099824995224 0.00073169059927 5.7859642882e-05 -0.00045499708172 0.0010469743018 
0.00028353918835 -0.00059377539324 -2.6012401316e-05 0.00048244525838 6.1594315855e-05 -0.00047697062335 0.00015546918805 0.00052967217999 3.3042722e-06 
-0.00020441043393 4.5271418291e-05 -0.00078209820234 -2.5189079419e-06 -0.00080362366659 0.00032805291147 -0.00050259810864 -0.00081736978778 -1.5260725931e-05 
0.00030460547454 0.00029312900807 1.6381901555e-05 -0.0006139378318 -0.00093425362947 0.00023133145404 0.00017780718306 -0.0008440468563 -4.5138319792e-06 
0.00076436459136 -0.00089592331729 3.3177078167e-05 0.00042589527741 -0.00086408645576 0.00050392657717 -7.8619707186e-05 -0.00077496343051 -0.00030723356782 
0.00040583861259 -0.00074155266128 -4.5031358994e-06 0.00017640116133 -0.0009124351659 -1.7897592577e-05 0.00023678930154 -0.00091186943971 -1.9627374967e-05 
0.00019692196077 -0.0010795962831 -0.00011070060382 -0.00011409434573 -0.00096488080128 -0.00022608939388 0.00053138349936 -0.00064652115553 0.00018332113921 
0.00073636361678 -0.0015098619788 -2.747355145e-05 0.00012880679666 -0.0016660760908 0.0004340117256 -0.0003164665286 -0.00092738771568 0.00040378735587 
9.6731418876e-05 -0.0010040678578 0.00070056343043 -5.4012576688e-05 -0.0010811524969 1.7385261828e-05 0.00021328125307 -0.0013707824775 2.5824026462e-05 
0.00046982907297 -0.0012757781663 -0.00035714431322 0.0013020005111 -0.0023114143806 -0.00020391644116 -0.00023851074774 -0.0017609110207 0.00010340753004 
-0.00030313224542 -0.00059956456229 2.2761335711e-05 0.0003549893616 6.9431478871e-05 -0.00094632040389 0.00070232602769 -0.001399335047 -0.00060095609275 
0.00024495713803 -0.00075040434445 3.5633942014e-05 0.00011313159317 -0.0017369585823 -9.3294907441e-07 3.114708231e-05 -0.0015902963947 -0.00016438020021 
0.00035040881908 -0.0010113585299 0.00027530845937 0.00049625179662 -0.0012356043995 1.6283266895e-05 0.00036217651811 -0.0016047996085 6.8002897105e-05 
0.00046068535412 -0.0017098516386 -2.6058393592e-05 0.00062034233623 -0.00071545261725 -4.4365612161e-05 -0.00024752518973 -0.0012543265659 -0.00027424927491 
-0.00032220488926 -0.0021524588334 1.0965504606e-05 0.00028183157707 -0.0014488450455 -9.9782166096e-05 0.00043619553798 -0.0012963816637 0.00030356324002 