# vtk DataFile Version 4.1
vtk output
ASCII
DATASET UNSTRUCTURED_GRID
POINTS 1274 float
0.0604126 1.74005 0.0425899 0.0880328 1.77476 0.126182 0.044236 1.74139 0.220245 
0.0893049 1.82597 0.0596014 0.06085 1.93732 0.0413492 0.0851391 1.89149 0.0885384 
0.0978001 1.83602 0.19996 0.060091 1.90714 0.217714 0.101136 2.0177 0.0394403 
0.0988677 1.95849 0.0867682 0.0889426 1.95396 0.147716 0.114103 1.99487 0.206022 
0.0519319 2.09722 0.0577576 0.0907648 2.19165 0.0405665 0.0923236 2.12874 0.125767 
0.0547089 2.09372 0.203971 0.103078 2.18759 0.214872 0.0491582 2.27549 0.0454241 
0.102501 2.30973 0.0726711 0.103898 2.24738 0.0851421 0.0392424 2.21583 0.0946181 
0.113835 2.29861 0.135051 0.0391174 2.2623 0.212344 0.0884734 2.24795 0.169354 
0.0856663 2.36043 0.0394294 0.0911349 2.3646 0.197182 0.0487066 2.43571 0.210834 
0.0488765 2.44948 0.0346782 0.110273 2.54332 0.0617153 0.100679 2.47357 0.0793573 
0.0448086 2.56167 0.0382237 0.100319 2.47318 0.149042 0.0840392 2.52482 0.203703 
0.0565527 2.63004 0.0446642 0.111013 2.69323 0.0539069 0.0472392 2.58018 0.119126 
0.104743 2.64099 0.127259 0.0379914 2.60776 0.204806 0.0943143 2.63903 0.198632 
0.0637334 2.78602 0.0572627 0.109315 2.75396 0.0982874 0.0832931 2.70354 0.20438 
0.0600361 2.78475 0.212869 0.111728 2.73103 0.259683 0.108278 2.82521 0.121994 
0.109119 2.8819 0.0572151 0.0920229 2.86408 0.216616 0.110596 2.8878 0.152816 
0.139541 1.74055 0.0450118 0.230935 1.7573 0.0684719 0.1504 1.79523 0.0877253 
0.195824 1.76648 0.144276 0.155982 1.73903 0.219008 0.248378 1.74354 0.201949 
0.138686 1.80113 0.16023 0.15793 1.80784 0.22425 0.205373 1.83154 0.0500274 
0.244466 1.86517 0.120948 0.147321 1.92057 0.0566712 0.247101 1.93011 0.0500457 
0.144218 1.86273 0.12721 0.217381 1.83874 0.221416 0.156377 1.93126 0.21144 
0.198608 1.88882 0.170067 0.218752 2.00457 0.0476476 0.160123 1.99037 0.0752566 
0.203984 2.05266 0.0856198 0.144637 2.04156 0.126987 0.199643 1.94827 0.132183 
0.200026 2.0166 0.22667 0.171815 1.98778 0.176815 0.151164 2.04975 0.197638 
0.201626 2.06338 0.16136 0.23777 1.98262 0.180355 0.145706 2.08313 0.0609826 
0.20469 2.12943 0.117205 0.194323 2.16854 0.0462164 0.247129 2.09775 0.0498617 
0.203158 2.19415 0.109331 0.136057 2.15012 0.0744569 0.136184 2.1084 0.214225 
0.193589 2.18234 0.215292 0.24979 2.07641 0.206415 0.247919 2.16914 0.159747 
0.155372 2.10698 0.154233 0.20766 2.11885 0.188735 0.154087 2.27583 0.0424673 
0.233628 2.28339 0.0508646 0.238149 2.21975 0.0609765 0.141 2.21409 0.13669 
0.204155 2.281 0.149281 0.141484 2.2771 0.207426 0.241253 2.32236 0.234932 
0.203083 2.34926 0.056673 0.152027 2.44474 0.0388876 0.246347 2.44101 0.0496996 
0.188284 2.41436 0.0906795 0.141475 2.37738 0.137141 0.241554 2.37785 0.129431 
0.194643 2.36264 0.212842 0.152886 2.44723 0.202501 0.246429 2.42289 0.221467 
0.209158 2.42154 0.171174 0.212382 2.5103 0.0385196 0.173762 2.55493 0.0611916 
0.241876 2.48987 0.0900311 0.146001 2.5527 0.125862 0.191979 2.4765 0.134218 
0.205687 2.5261 0.208985 0.143046 2.55148 0.218706 0.243458 2.47443 0.182945 
0.15547 2.61996 0.045409 0.201024 2.65397 0.124855 0.204565 2.58612 0.104869 
0.145982 2.61429 0.226517 0.198686 2.69363 0.195149 0.242623 2.60073 0.21392 
0.185395 2.58812 0.179539 0.243652 2.66522 0.235138 0.159638 2.6504 0.171771 
0.163529 2.677 0.254138 0.193654 2.69919 0.047817 0.243977 2.72849 0.123827 
0.156786 2.79408 0.0656853 0.189436 2.81119 0.124313 0.148962 2.71395 0.139022 
0.141289 2.78876 0.223616 0.144355 2.72197 0.202848 0.193689 2.75396 0.170941 
0.195116 2.74174 0.238176 0.195937 2.86825 0.0557981 0.162916 2.87358 0.117568 
0.207516 2.87529 0.208718 0.151336 2.84437 0.17763 0.23668 2.83157 0.164559 
0.224328 2.89116 0.141026 0.289132 1.76355 0.124748 0.283281 1.81888 0.0525114 
0.341328 1.76119 0.0541633 0.297158 1.82245 0.202751 0.338307 1.74275 0.213332 
0.36627 1.80605 0.18646 0.347026 1.87553 0.118029 0.36029 1.9169 0.0581892 
0.30008 1.90791 0.0890011 0.251887 1.91301 0.217898 0.344899 1.91429 0.223862 
0.302767 1.82828 0.1336 0.290494 1.8854 0.169092 0.296801 1.96171 0.122921 
0.296582 2.01908 0.0477563 0.353246 1.98572 0.0830888 0.253768 2.02639 0.125294 
0.344774 2.0364 0.142573 0.301994 2.00863 0.21471 0.298203 1.94928 0.186198 
0.29387 1.95376 0.252286 0.307428 2.18271 0.0460597 0.348151 2.09324 0.0623363 
0.250906 2.16079 0.0830645 0.306204 2.12669 0.13209 0.315104 2.18324 0.230788 
0.333374 2.09905 0.203373 0.3495 2.15581 0.177597 0.278562 2.13296 0.214117 
0.266941 2.22122 0.117029 0.360097 2.22481 0.120429 0.349823 2.26346 0.039176 
0.287882 2.25869 0.0724982 0.298852 2.2844 0.133948 0.255369 2.25759 0.215212 
0.342454 2.25999 0.218538 0.252616 2.31387 0.173847 0.310752 2.21096 0.168653 
0.344465 2.31007 0.175904 0.306442 2.34202 0.0533025 0.336312 2.39833 0.117544 
0.355078 2.43243 0.0553163 0.2851 2.3989 0.0798568 0.299973 2.35275 0.210281 
0.355507 2.42541 0.2288 0.303093 2.35051 0.140325 0.293925 2.40727 0.164533 
0.290705 2.52286 0.0541175 0.354638 2.4643 0.124891 0.259526 2.55425 0.135573 
0.28523 2.46873 0.131683 0.346964 2.55069 0.126759 0.29444 2.54308 0.205126 
0.338047 2.48901 0.195183 0.259886 2.61083 0.047998 0.303207 2.68483 0.0489325 
0.358617 2.62392 0.0532616 0.255692 2.62335 0.114351 0.35179 2.67805 0.0923969 
0.310754 2.65265 0.136227 0.334153 2.61261 0.20703 0.250731 2.66774 0.165051 
0.2571 2.78135 0.0599779 0.343025 2.80107 0.0558413 0.307237 2.75508 0.10309 
0.331743 2.71686 0.146288 0.299283 2.70243 0.230124 0.286989 2.80581 0.137052 
0.252312 2.77863 0.208995 0.362512 2.79765 0.198412 0.352232 2.7315 0.20518 
0.318721 2.77692 0.254046 0.311594 2.88728 0.0545075 0.359962 2.85505 0.093054 
0.259732 2.8517 0.0913748 0.283608 2.86142 0.214029 0.339395 2.86122 0.166834 
0.339095 2.84346 0.23712 0.439309 1.73948 0.0517089 0.455387 1.79906 0.0841918 
0.388251 1.77763 0.12644 0.440809 1.75901 0.218839 0.442251 1.80159 0.156303 
0.401058 1.83317 0.0397028 0.448139 1.91501 0.0560414 0.454036 1.86845 0.135826 
0.409352 1.85027 0.220199 0.400005 1.94618 0.133453 0.489421 1.84001 0.217254 
0.463548 1.91152 0.226077 0.39179 1.88157 0.165111 0.407832 2.00032 0.0386367 
0.392942 2.04469 0.0893611 0.461266 1.98267 0.0734642 0.451377 2.03968 0.136303 
0.383376 2.01696 0.224446 0.489152 1.9535 0.136171 0.485618 2.02188 0.210649 
0.407581 1.95347 0.210402 0.413463 2.18977 0.0409684 0.443014 2.08026 0.0575457 
0.404461 2.13291 0.078656 0.396495 2.12968 0.143697 0.433671 2.19582 0.139913 
0.396301 2.18992 0.215974 0.452308 2.08391 0.221522 0.498227 2.18054 0.220546 
0.397756 2.11784 0.209095 0.496746 2.18233 0.151898 0.450875 2.10389 0.162745 
0.386953 2.30522 0.124909 0.444214 2.26638 0.0615204 0.494627 2.23461 0.0961452 
0.494216 2.29415 0.143272 0.448758 2.27061 0.200737 0.392066 2.30352 0.215637 
0.39096 2.24614 0.174741 0.411396 2.35441 0.0617055 0.440695 2.4453 0.0495614 
0.471157 2.38494 0.067404 0.467359 2.32658 0.0870394 0.44235 2.37563 0.130733 
0.416798 2.36006 0.207693 0.494903 2.34537 0.207802 0.455496 2.4364 0.222466 
0.381366 2.41134 0.165696 0.407715 2.52149 0.0423899 0.44839 2.56238 0.0789031 
0.488704 2.52716 0.120333 0.439248 2.4948 0.100205 0.417326 2.46472 0.150604 
0.450501 2.57087 0.139844 0.396233 2.532 0.209415 0.490575 2.46176 0.127425 
0.48677 2.53134 0.222025 0.496568 2.47681 0.191565 0.449164 2.5159 0.171323 
0.413044 2.69347 0.0481007 0.451231 2.62422 0.0475529 0.499912 2.68854 0.0364664 
0.405349 2.60312 0.0937858 0.399586 2.6547 0.136766 0.491663 2.6475 0.138108 
0.446563 2.60561 0.220935 0.393567 2.63664 0.203288 0.491126 2.64767 0.207568 
0.444673 2.72806 0.123551 0.400897 2.80404 0.123735 0.447482 2.79582 0.0610111 
0.388868 2.75141 0.0728138 0.40814 2.69805 0.20128 0.498487 2.70995 0.211625 
0.498223 2.82117 0.127796 0.452216 2.7926 0.220767 0.488479 2.75746 0.167409 
0.389467 2.80605 0.262068 0.408941 2.88227 0.0528193 0.499126 2.87781 0.0610588 
0.445991 2.85377 0.0994607 0.393324 2.88355 0.221077 0.453305 2.85923 0.260989 
0.556928 1.74734 0.0528254 0.547152 1.8128 0.0911302 0.506781 1.78484 0.136705 
0.592219 1.78653 0.126379 0.550469 1.75579 0.212238 0.556866 1.80936 0.171407 
0.507255 1.82997 0.0406926 0.603043 1.83212 0.0489523 0.553698 1.91471 0.0662448 
0.504252 1.88 0.0876615 0.546014 1.85963 0.135114 0.60221 1.84644 0.210502 
0.614308 1.94637 0.144494 0.559154 1.92177 0.222314 0.506039 1.8911 0.178175 
0.513086 2.00936 0.0388235 0.59184 1.99682 0.0644627 0.506524 2.01095 0.105877 
0.555174 1.96414 0.110011 0.506854 2.06732 0.0760639 0.589301 2.05413 0.0915932 
0.546753 2.04643 0.138615 0.606167 1.99896 0.219578 0.541879 1.98427 0.181324 
0.543357 1.98618 0.260494 0.509252 2.17791 0.063379 0.561933 2.10187 0.04858 
0.615034 2.19159 0.0629693 0.505614 2.1191 0.129545 0.606946 2.13297 0.13501 
0.53901 2.09554 0.224984 0.611333 2.18925 0.209988 0.597087 2.07765 0.184886 
0.550289 2.14624 0.178006 0.559979 2.15736 0.249491 0.54208 2.259 0.0514603 
0.53815 2.31162 0.0984692 0.552177 2.21944 0.128982 0.59484 2.29209 0.134927 
0.536201 2.25328 0.224817 0.583953 2.24421 0.184141 0.595377 2.27776 0.23657 
0.517399 2.35373 0.0399489 0.55613 2.39627 0.122552 0.609798 2.35308 0.042652 
0.560985 2.44263 0.0577242 0.607982 2.35646 0.111962 0.607019 2.34536 0.216552 
0.540552 2.43086 0.208285 0.543531 2.33812 0.15836 0.592833 2.40295 0.178213 
0.594874 2.41306 0.239616 0.505685 2.5304 0.0517957 0.599143 2.54228 0.0568276 
0.559374 2.49844 0.0895298 0.541251 2.56138 0.127374 0.595737 2.45901 0.134401 
0.589934 2.52958 0.204965 0.598095 2.46007 0.201443 0.536941 2.49175 0.240978 
0.536049 2.50309 0.151645 0.550287 2.55344 0.25883 0.552812 2.61062 0.0575631 
0.546731 2.66526 0.100767 0.597727 2.64351 0.13404 0.534542 2.6064 0.227958 
0.547331 2.61316 0.165336 0.605039 2.59173 0.175833 0.549179 2.68477 0.17133 
0.541277 2.66992 0.239339 0.600674 2.59524 0.242377 0.547342 2.74096 0.119607 
0.595965 2.70121 0.0619936 0.543021 2.77533 0.0413748 0.608858 2.81062 0.124241 
0.590938 2.76292 0.0807728 0.501016 2.70458 0.100553 0.588697 2.70979 0.222023 
[...]
POINT_DATA 1274
FIELD FieldData 10
VELOCITY 3 1274 double
0 -0.196 0 -2.65436464e-05 -0.19603594498 -4.3065499858e-05 0 -0.196 0 
-0.0014320783624 -0.19552218438 -0.00083047996609 -0.00029472436699 -0.19588755419 -0.00020644271163 -0.00089064978635 -0.1958531129 0.00013386744531 
0.00033263110873 -0.19653036507 -0.0009456279958 0 -0.196 0 -0.00018036019224 -0.19578249909 -0.00011923166779 
-0.0028476810331 -0.19377715831 0.0010932707688 -0.00062159335629 -0.19576968973 0.0013201803038 0 -0.196 0 
0 -0.196 0 0.0026533825947 -0.19757064866 0.0025429855146 0.00053896394111 -0.19628202024 0.001256858176 
0 -0.196 0 0 -0.196 0 1.6289943752e-05 -0.19589502781 -3.4474229613e-05 
-0.0007500944685 -0.19484274316 0.00022281034726 -0.00026951262638 -0.19479681404 0.00039897817567 3.6151054856e-05 -0.19558607539 0.00034425188838 
0 -0.196 0 -0.003468313639 -0.19429154478 0.002527492065 -0.0034538497936 -0.19352755431 0.0018697644423 
-0.00016532593573 -0.19502663074 -0.0003538816929 0 -0.196 0 0 -0.196 0 
-0.00096847606753 -0.19645037833 -0.0008352938289 0.00017052461075 -0.19618552866 0.00016255564505 -0.00096847606747 -0.19645037833 -0.00083529382885 
0.00019990759824 -0.19606107609 0.00017789076859 0 -0.196 0 0 -0.196 0 
-3.1616485134e-05 -0.19585211356 1.191795359e-05 0 -0.196 0 0.0023472973622 -0.19274152432 -0.00015501912247 
0.0018691625949 -0.19228222408 -0.00020754208987 -4.3312848152e-05 -0.19601593205 -1.1801800181e-05 -0.00027115383934 -0.19563147648 -0.00014981046491 
-8.8808055775e-05 -0.19597769598 -9.5599506567e-05 -7.3451796187e-05 -0.19648565072 -0.00050960300282 -0.00067616578982 -0.19568346086 -0.00033898890371 
0 -0.196 0 -0.0021060694203 -0.1945421583 -0.00016456926776 -0.00029097430256 -0.1964480626 -0.00063209700813 
0 -0.196 0 0.00027404980227 -0.19638968103 -0.0004860835656 -0.0015832258097 -0.19483135084 -0.001379877976 
-0.00036660529812 -0.19709488589 -0.00078091348827 0 -0.196 0 -0.00039033629184 -0.19495768887 -0.0022350000235 
0.00079539876069 -0.19652062248 -0.00032350847059 0.00010882257792 -0.19707109609 -0.00018600043466 0 -0.196 0 
0.00065077800947 -0.1965375608 -0.0006590590625 0.00031327389873 -0.1968688555 -0.00051957003985 0.00083052760615 -0.19522446564 -0.00095695393974 
0.00032003479301 -0.19620711078 -0.00040139544768 -0.0013544802941 -0.19478183561 0.00020584035754 -0.00011719558646 -0.19594282059 -8.8869056028e-05 
-0.00043970877869 -0.19597895612 -0.00049559003081 0 -0.196 0 0.00056840146003 -0.19552259232 -0.00051993410908 
0.00066008805247 -0.19597046239 -0.00031564670332 0.000596987314 -0.19607300391 -0.00033005872574 0.00017877194375 -0.1949799626 -9.7023733592e-05 
0.00028488265981 -0.19646156145 4.090201343e-05 -3.7841910502e-05 -0.19526795087 0.0004434288552 -2.4147567604e-05 -0.19547063675 -5.4177876623e-05 
6.073518886e-05 -0.19588969387 7.5357518196e-05 -3.5596056944e-05 -0.19521731373 -0.00025897144622 0.00024024082228 -0.19520296587 0.00041127463179 
0.0038525405875 -0.20249415261 -0.0013088839056 8.9117378714e-05 -0.19589404971 0.00016113645149 2.0808284141e-07 -0.19694222064 0.00011970070621 
0.00019607473804 -0.19698613967 -0.00099378398434 0.00100640951 -0.19603828257 -0.00023186708814 4.9917690845e-05 -0.19628485771 -2.1557413114e-05 
0.00022374401104 -0.19629613897 0.00018285721409 0.002842441415 -0.19708604091 0.0028842861841 -0.00023384857091 -0.19449177055 0.00059223960782 
0.00019465318259 -0.20219244225 -0.00022139044362 0.0034787384185 -0.20161366723 0.00048992798284 0.00073190990793 -0.19784702114 -0.00072910031072 
0.00096351509122 -0.19539921349 0.00099131027615 0.0034812766205 -0.20153740392 -0.00059425717674 -1.9559928224e-06 -0.19550517373 0.00011701581559 
-0.00016280361919 -0.19437566728 -0.00032885182622 0.00020919802166 -0.19528462879 -0.00016659828816 -0.002814847742 -0.19413005516 0.0026630490025 
-0.0013764769484 -0.19592683421 0.0002791378394 0 -0.196 0 0.00040465423884 -0.19662272407 0.0011334619642 
0 -0.196 0 0 -0.196 0 -0.00018424623119 -0.19617838997 -0.00014845446506 
0 -0.196 0 0 -0.196 0 0.0017718525196 -0.1979100507 0.0004655215306 
0.00050516144219 -0.19680061689 0.00059692169094 0 -0.196 0 -6.3061075001e-06 -0.19651736418 0.00038101279269 
-0.00027300166615 -0.19631067284 -7.9671228513e-05 0.00056704586813 -0.19601614036 -0.00035865448032 0.00034445567331 -0.19600217446 -0.00077879791633 
0.00012035988738 -0.19599985502 -0.00011840195099 -0.00016490716893 -0.19588986085 -0.00023899021658 0.00012066319928 -0.1959900671 -0.00011509779741 
-0.00065562792298 -0.19624748396 0.0004011358463 -0.00046903670277 -0.19517796001 0.00067834938609 -0.00012161572357 -0.19643613088 0.00017952657483 
-3.4359513485e-05 -0.19593336477 -6.7343352037e-05 -0.00071440823749 -0.19361340323 -0.00044553177221 -0.001776159181 -0.19346609925 -0.00088163630535 
-0.00012135952623 -0.19477017612 0.00033686902716 0.0019952637194 -0.19535769114 0.001878740715 0.00027741050308 -0.1958570577 0.00017826823264 
-0.00014027516957 -0.19560534768 0.00062422232901 0.0017341608887 -0.19636048347 0.0014602928032 0.0013404026395 -0.19471809252 0.0012898267665 
-0.0013656382614 -0.19453536881 0.00059915197141 0 -0.196 0 0.00017253461259 -0.19659270416 0.0004084066928 
0 -0.196 0 7.6070495708e-06 -0.19582092759 -6.3646902408e-06 0.00011638607738 -0.19651210909 -0.00071177837766 
0.0015622970893 -0.19604716782 0.0004258532798 -0.00048691477525 -0.19580400031 -0.00084262436049 -0.00015808232455 -0.19615650432 -8.394229437e-07 
0.0024362969569 -0.19516624134 0.0020134986004 0.00037916145587 -0.19576129315 -0.0011267288395 -7.9189190246e-05 -0.19571484975 -0.0012422000928 
-0.00027522371686 -0.19620836222 -0.00052685940322 3.9559638802e-06 -0.19652569642 -0.00082829098091 0.00041982667704 -0.19574475658 -0.00052745306701 
0.00012757530023 -0.19571188521 -0.00030530252522 2.6138029424e-05 -0.19616741188 -1.5673745615e-05 0 -0.196 0 
0 -0.196 0 0.00023749205898 -0.19589682836 0.00010245773066 0 -0.196 0 
0.0010098188253 -0.19420004691 0.0015894865142 0.00015955998653 -0.1960823539 -4.7835371178e-06 0 -0.196 0 
-4.0132388845e-05 -0.19617347116 -0.00032510498299 -0.00013789191647 -0.19588418769 0.00021227291845 -0.00048924124852 -0.19637979814 0.0002715495869 
0.00024965621679 -0.1961975319 -4.7262101336e-05 0.0002355240454 -0.19637587143 7.371251096e-05 -6.1012680026e-05 -0.19611211899 -0.00042442514539 
-1.544738672e-05 -0.19598348002 -6.178027012e-06 0.00021952919293 -0.19499542748 0.0005499642583 0.00045543733927 -0.1959964733 0.00015184339462 
0 -0.196 0 -7.6611225645e-05 -0.19612524196 -0.0003643169803 -7.2305621278e-05 -0.19625393612 -0.00012855616189 
-0.00024666671722 -0.19585854632 0.0003224259236 0 -0.196 0 -0.00015060769297 -0.19594775656 -3.6931261999e-05 
0.00040064403557 -0.19659900017 0.00058070334428 0.0014920065718 -0.19710187359 -0.0010200199851 0.00043869958643 -0.19531710116 0.00017342927347 
0.00026490735441 -0.19638119905 2.334112148e-05 -0.00032515875333 -0.19598492246 0.00058980162517 -0.00019209085854 -0.19718584115 0.00023227878012 
-0.0002497887084 -0.19646058233 0.00051893956242 -0.00027544460759 -0.19590497764 -0.00052942927544 0.00019316629751 -0.19583155926 -0.00024638147405 
-0.00033299573387 -0.19624993086 0.00039085140662 0.00056090554479 -0.19737515788 0.00097878182388 0.0001149157941 -0.19636664425 5.4350936058e-05 
-0.00042345921329 -0.19457839851 -0.00072293243614 -0.00097740460273 -0.19531004782 0.00061938158343 -2.9601514505e-05 -0.19589164502 -0.00013643797899 
0.00071676446438 -0.19357106767 -0.0012664737152 2.7896405617e-05 -0.19652706942 -0.00028475966896 0.0010298286794 -0.19679433226 -0.00034820480932 
5.9794161528e-05 -0.19610152961 -0.00012975697165 0.0003894039672 -0.19640928708 -0.00024642544686 -0.00019137916647 -0.19597127546 0.00056435716015 
0 -0.196 0 0.0025335173533 -0.1974667351 0.0006261222168 0.00070685450181 -0.19591122711 0.00039841495852 
0.00011397996786 -0.19595760432 -9.6571663436e-05 6.4750348656e-05 -0.19638820326 1.6649909767e-06 -0.0012884776509 -0.19345921631 -0.001460963673 
8.3714468636e-05 -0.19595078339 -0.00012129867638 0 -0.196 0 -0.0096163886158 -0.18442722379 0.0021379041189 
-0.0093162297803 -0.18420820696 0.0022630810104 9.790881475e-05 -0.19540976692 -0.0012136296372 0 -0.196 0 
-0.00032958552858 -0.19586374089 -0.000127988433 -0.00015003009222 -0.19339717308 -0.0014800094026 0.0001293409972 -0.19578238585 -0.00015242822904 
0.00035343813807 -0.19550857874 0.00021622115456 -0.00091600640592 -0.19604889501 -8.1365261918e-05 0.0012714800891 -0.1960255055 0.0010653541112 
0.00080768932054 -0.19686624529 0.00050981200903 -0.00076102442015 -0.19564090903 -0.0006177444133 0.00089042065302 -0.19672015325 0.00050265101464 
0.00074634536249 -0.196810543 0.00050975125737 0.001278533293 -0.19581612467 0.00042367131128 0.0011886959817 -0.1980239265 0.0027439448211 
-0.00018311974058 -0.19566083267 -0.00021148632861 0.0018728766666 -0.19515327735 0.0013156415672 0.001433986429 -0.19633086623 0.00015147457911 
0.00015605452869 -0.19166340896 0.0012675817811 0 -0.196 0 0.0001466572995 -0.19607862424 -0.00037679002357 
0.0015133315857 -0.19763574547 0.0021991426124 -0.00081297535652 -0.19496892898 -0.00046109948939 0.0013741615338 -0.19597264681 -4.0598638167e-05 
0.0012133584062 -0.19035057806 0.0018975531541 -0.00096525003273 -0.19957697944 -0.0019501833601 -0.00081750425673 -0.19932691582 -0.0017341455975 
-0.00043776688377 -0.1962503523 -0.00031676822927 0 -0.196 0 -0.00039896487748 -0.19626470392 -0.00037541552161 
-8.1295320451e-05 -0.19598959961 -7.7840718655e-05 -0.00016575201242 -0.19636638024 7.3056219712e-05 0.00090404310583 -0.1953401763 0.00014881225126 
0.0018402148011 -0.19626952436 0.003245114831 -0.00076720299758 -0.20046015286 0.0012743426841 -0.00013702599347 -0.19763905565 0.0017816659485 
-0.00021830403318 -0.1961102967 0.00087840592288 -0.00064276940718 -0.20028652442 0.0017181117512 0.00018599752255 -0.19610426109 0.00014460882313 
0.00072915441869 -0.19485064495 0.00048092409517 -0.0005305308994 -0.19654726806 0.0010547096809 0.0021554326585 -0.19811207479 -0.0005977272348 
0 -0.196 0 -1.0406018762e-05 -0.19676027674 0.0001818813436 0 -0.196 0 
-0.00038448525774 -0.19633635106 0.00084935536601 -3.5677037713e-06 -0.19642546913 -0.00013041427719 0.00095766376319 -0.19540340245 -0.00034979989816 
6.3949334294e-05 -0.1962749385 0.00012216004739 -8.1247177975e-05 -0.1967184819 0.00038808291116 -0.00048864048913 -0.19580159186 -0.00015375630477 
-9.4053209545e-06 -0.19442002537 -0.00095406532362 0.00040626872963 -0.1965375473 0.00035997535944 0 -0.196 0 
0.00030662920423 -0.19665280294 0.00044633397622 -0.00038618673492 -0.19572295317 -0.0002580364411 0.00027219479161 -0.19626793201 -1.0783903446e-05 
0.00075513925768 -0.19529954534 -0.0011520476986 -0.00055409042353 -0.19546951893 -0.00012984545609 -0.00054085603561 -0.19192384638 0.0031143370969 
0 -0.196 0 0.00010347334625 -0.19590371091 1.5755681219e-05 0.00027176162555 -0.19527325964 -3.1878462818e-05 
-0.00016440071031 -0.1936674399 -0.0014974190156 -1.5426274987e-05 -0.19598078122 -4.5438059516e-06 -0.00030040026986 -0.19464225756 0.0010551653766 
0 -0.196 0 4.7501833407e-05 -0.19578614574 7.1746958162e-05 0 -0.196 0 
0.00046133730668 -0.19535730453 -6.9519359976e-05 -0.00063936682125 -0.19570059889 0.00033370232649 -0.00016929003458 -0.19605210131 7.9425765659e-05 
0.00030824433077 -0.19624052183 0.0001774606607 -0.00044789176276 -0.19635885784 -9.8552501381e-05 -0.0014191305911 -0.19632498604 0.0010084648466 
0.00031630225322 -0.1942747355 0.00068702005779 -0.00095510262975 -0.19410202419 0.0011265253675 5.0544108988e-05 -0.19600533355 0.00038855450046 
-0.00041583150804 -0.19518182626 0.0012941603485 0.0011082326979 -0.19554349179 -0.00019124191532 -0.0001349497187 -0.19438301291 -0.00018297346403 
0.00020487788414 -0.19574352475 0.00034506237235 0.00015642044478 -0.19562435909 8.9597417402e-05 0.00088851695709 -0.1962910516 -0.00018071225895 
0 -0.196 0 -0.00053034502019 -0.19650177719 0.0006006737988 -0.00014378258775 -0.195763643 0.00035272036374 
-0.0010271542774 -0.19580098593 0.00070918729642 -0.00026957742694 -0.19548887998 0.00043628831107 2.085904135e-05 -0.19601089087 6.4995424596e-05 
-0.00069315113976 -0.19772365913 0.00023689319776 9.4275602492e-05 -0.19636573771 0.00024294793188 -0.0001117750958 -0.19730774347 9.2895339415e-05 
-0.00049980882707 -0.19584100685 0.0002829414064 7.4624761954e-05 -0.19574262466 0.00027863959287 0 -0.196 0 
-0.00052050076586 -0.19526871748 -7.0633734625e-05 0.0012368244472 -0.19670859941 -9.4511895152e-05 -0.0014450473339 -0.19558608943 0.0011001193184 
0.0007256331022 -0.19514146535 0.00019939345905 0.0022322762716 -0.1947447252 0.001660919962 0.0013016399389 -0.19496156964 0.00050017489412 
0.0019128065061 -0.19403094267 0.0017133751502 0.00025936593729 -0.19595368381 -0.00016281749169 0 -0.196 0 
0.0001392540259 -0.19608243175 0.00019525805074 0.0023920254059 -0.19238021633 -0.00076059830991 0 -0.196 0 
0 -0.196 0 7.4582745069e-05 -0.19619195625 -0.00033961605336 0 -0.196 0 
7.0410152093e-05 -0.19606482076 -4.4914474562e-05 0.0001130664968 -0.19695748553 0.00070255637292 0.00047252908578 -0.19681185632 0.00065738429228 
0.00025870711353 -0.1960656923 -0.00047106385867 0 -0.196 0 0.00056658140076 -0.19663970298 -0.0013363615448 
0.00038672768669 -0.19593766049 -0.00059769297127 0.00067003351048 -0.19665037293 0.00029545113985 0.0005565257855 -0.19514887325 -0.00049637962595 
-0.00012955808556 -0.1961191953 0.00017288305143 0.00036763984728 -0.19741490411 0.00083226715849 0.00046737238368 -0.19756756655 0.002092691675 
-0.00093261465336 -0.19752382519 -0.0003002590778 0.00039334013788 -0.19662943719 -0.00098009824447 0.002825543854 -0.19759066336 0.00012415450446 
-1.5109825969e-05 -0.19661004998 -0.00095499804068 0.00091972870811 -0.19719566637 0.00012743943722 0.00046681732614 -0.19577163728 -0.00032726742938 
0.0011408664697 -0.19621528144 0.00070909982412 6.2448176198e-05 -0.1960087718 -3.4462690142e-05 0.00031001965643 -0.19706044798 1.3773084264e-05 
7.1296378292e-05 -0.1959517858 -3.0808837149e-06 -0.00065885335547 -0.19185079333 0.0029352402216 0.00020500735706 -0.19578295443 -0.00018578238253 
-0.0020411822111 -0.19401469792 -0.0012555059185 -0.00016446774356 -0.19600585297 -0.00058254699575 -3.3316986408e-05 -0.19577975901 -0.00021067025668 
-0.00074703314428 -0.19791072993 -0.00095854502899 3.8097531954e-05 -0.19602813486 1.3504743437e-05 0.0016664327362 -0.19534493503 0.00064594286674 
-0.00027611694166 -0.19617618001 -0.0003658646689 -0.0005601810125 -0.19741892575 -0.00011071588806 0 -0.196 0 
-0.0007589852333 -0.19557330569 -0.00066670892543 0.0001470853701 -0.19598904119 4.9709051346e-05 0.0017055453207 -0.19048831388 -0.0017481421224 
-8.6687865542e-05 -0.19602812773 -0.00014748934596 0.00022998573602 -0.19595544387 -3.5417263538e-05 -0.00032443061398 -0.19526552389 -0.00050672731539 
0 -0.196 0 -0.0022517072609 -0.19430748316 -0.0027587279737 0.00017693579078 -0.1953538017 -0.0016661074628 
-0.00067504315048 -0.19741971089 -0.0020768861017 0.001206073369 -0.19015998042 -0.0017819389917 -0.0025758558267 -0.19276408315 -0.0019268946144 
-5.6477745562e-05 -0.19598835004 -0.0003341066562 -0.001112945028 -0.19391728652 -0.00049346521743 -0.00053783964244 -0.19356221564 -0.0038830428229 
0 -0.196 0 -0.0015602808392 -0.19584243393 0.00014773340412 5.6647342019e-05 -0.19590690105 -0.00013229747158 
-0.00063421570916 -0.19606900099 -0.0011833658777 0.0012083356738 -0.19542513021 -0.00015104354693 -0.00026552245441 -0.19548036212 -0.0010264215896 
-0.00015966781573 -0.19506259734 0.00080060426046 0.00040917096207 -0.19493080272 -0.00055604752591 9.928333074e-06 -0.19591058569 0.00071660606524 
0.0004222020161 -0.1953058129 0.00047580685718 5.009351777e-05 -0.19481553737 0.0011184032499 -0.00010807526521 -0.19613836087 -0.00020788937391 
-0.00014138079549 -0.19609504692 -0.00023748447555 0.00014652939766 -0.19676057493 -0.00086834351533 -0.001058865437 -0.19539023814 0.00016370356578 
0.00014512072024 -0.19562266116 0.00028929956115 0.00023201790875 -0.19558034003 -0.00010088925051 4.8863386878e-06 -0.19295674253 0.00088308671282 
-0.00077002516743 -0.19543948146 0.00027002082689 -0.00077672513156 -0.19438679983 0.00014680274018 -0.00024208606493 -0.19603141758 0.00041107441574 
0 -0.196 0 -0.00031267061211 -0.19616076356 0.00016250173228 0.00022157231804 -0.19576250452 -0.00039819088581 
-0.00017442548561 -0.19624853469 0.00036422336493 -0.00040693628186 -0.19579885267 0.00036647085407 0.00041678138396 -0.19467075837 0.0019216841079 
0.0013333074396 -0.19527200872 0.00035459961231 0.0016256657414 -0.19498847032 0.00025606942713 0.0017372275555 -0.19379835271 2.6382145634e-05 
0.0016355491391 -0.19353514376 -0.00086353558293 0.0024019306219 -0.19456647688 0.0017136561693 0.0014485187328 -0.1955671349 0.00052088774554 
0.00067097072405 -0.19547663709 -0.00050041271042 0.0005225951784 -0.19547412125 -0.0005747643482 0.00038058424683 -0.19504995688 0.00035033714842 
0.00076127566012 -0.19384871203 0.00070156994973 0.00075316122246 -0.19432741395 -0.00064861975032 0.00089123418685 -0.19498870048 -0.0010313394424 
0.00046839496293 -0.1980318378 -0.0012227833138 0.00041154390912 -0.19612639367 0.00040211892235 0.00014983807642 -0.19739424922 -0.00094454148863 
0.0003353248462 -0.19612917693 0.00033066014554 0 -0.196 0 -2.0974159919e-05 -0.19582244056 -0.00055363538978 
-1.5782826758e-05 -0.1959036241 -0.00041359907571 0.00029894118974 -0.19633093383 0.00033434120322 -5.1698560557e-05 -0.19609559022 6.8153699445e-05 
4.5748389245e-05 -0.19596702796 9.794592124e-05 0.0002113346687 -0.19587667578 0.00059307404841 -0.00012589950503 -0.1960452005 -0.00038583517569 
-0.00010967858713 -0.19624691829 -8.7006051919e-05 6.2893364086e-05 -0.19559547132 0.00016610748463 0 -0.196 0 
0.00071241907939 -0.19522590937 -0.00061644847934 -0.00010361363535 -0.19609221495 0.00016948154705 -0.00018621489568 -0.19610998055 9.9255821838e-05 
-7.4575106799e-05 -0.19598998611 -5.3600393263e-05 9.0250776373e-05 -0.19604767573 -5.4715060673e-05 -0.00078500387464 -0.19618133728 0.00032704217411 
0.00011259593747 -0.19605883555 -3.3277434947e-05 -0.00016484433017 -0.19623852078 -2.1745609091e-05 -0.001071687683 -0.19643781053 0.00080223071999 
-0.0010191556947 -0.19509551903 -0.00049289504059 -0.0024029994873 -0.19487132023 -0.0017106846481 1.4974431155e-05 -0.19576774572 -0.00013948987963 
0 -0.196 0 -0.0024391527468 -0.19456453019 -0.0015560529064 0.0018552062519 -0.1949691366 0.00049282781677 
0 -0.196 0 0 -0.196 0 -8.4219135757e-05 -0.19727778662 -0.0019914384037 
0 -0.196 0 0.0015909104795 -0.19743693335 -0.00033908562161 -0.00015115562988 -0.19593912306 -0.000153686629 
0 -0.196 0 0 -0.196 0 0.00039728618046 -0.19705218888 -0.00042972122909 
5.3152801567e-06 -0.19622539728 8.185205712e-06 0.0020032726875 -0.19515022648 -0.0004126127889 0.0016025621473 -0.19697345299 0.0010455366346 
-0.00024257860793 -0.19644469959 -0.00098405314776 0.0010986796598 -0.19733463443 -0.00030948787227 0.0016470469849 -0.19755490523 0.00068370768177 
0 -0.196 0 0.00036607197415 -0.19513143589 0.00024526281701 0.00051545572021 -0.19497184769 -0.00022053438504 
0.00010678262031 -0.19563856501 0.00036061268518 0.0016985971223 -0.19565599447 0.0008446674881 0.00056447479357 -0.19489248113 0.00044946337375 
0.00018496408645 -0.19600464495 -5.667203952e-05 0.00030757713639 -0.19539766697 -0.00033551577646 0 -0.196 0 
3.8712876606e-05 -0.19616199264 -7.917337706e-05 -3.0993097282e-05 -0.19572804667 -4.8781067691e-06 0.00058007235358 -0.19542401427 0.00020585707561 
0 -0.196 0 0 -0.196 0 3.5839558264e-05 -0.1951048509 0.00077707309073 
-5.8417874802e-05 -0.19496195635 0.00049078505608 0.00056124747648 -0.1967372742 0.00038948782792 0.00017247431971 -0.19592642277 0.00017355196438 
0 -0.196 0 -0.00039279752815 -0.19720657382 3.6037011789e-05 -1.2847786142e-06 -0.19600461721 -9.6126615169e-06 