# vtk DataFile Version 4.1
vtk output
ASCII
DATASET UNSTRUCTURED_GRID
POINTS 1274 float
0.513225 0.553277 0.0379545 0.469667 0.650825 0.105186 0.488208 0.597194 0.268458 
0.494907 0.587194 0.0986498 0.423813 0.755612 0.0323155 0.424508 0.768321 0.119801 
0.475693 0.637114 0.212958 0.459538 0.669728 0.268649 0.394185 0.844485 0.0588458 
0.398491 0.812545 0.165 0.44613 0.698805 0.214757 0.432983 0.738386 0.265757 
0.363081 0.902198 0.0319697 0.343929 0.967779 0.0522017 0.381408 0.87821 0.146395 
0.395024 0.843868 0.231731 0.345566 0.957017 0.259948 0.314225 1.03858 0.0387204 
0.390839 0.913367 0.0865423 0.448087 0.898793 0.110082 0.332419 0.995751 0.13005 
0.408918 0.914702 0.218465 0.310457 1.03763 0.265121 0.352107 0.929252 0.187711 
0.281807 1.10137 0.0487299 0.328148 0.987395 0.200779 0.286643 1.10814 0.260298 
0.257943 1.16198 0.0336643 0.357362 1.11522 0.103652 0.30198 1.06867 0.109289 
0.28981 1.25121 0.0382189 0.302998 1.04506 0.200285 0.283694 1.10018 0.172323 
0.333386 1.25498 0.0924491 0.385298 1.15727 0.03772 0.275706 1.14809 0.110205 
0.421778 1.14945 0.106326 0.260839 1.15018 0.208469 0.340107 1.1066 0.211256 
0.218718 1.25606 0.0332147 0.320255 1.18543 0.0541124 0.319665 1.15643 0.173643 
0.244877 1.1987 0.164476 0.287416 1.18286 0.26484 0.239214 1.22178 0.0935147 
0.372353 1.23103 0.0356631 0.236589 1.23013 0.236354 0.21586 1.25632 0.149473 
0.54083 0.470356 0.0302079 0.611612 0.295461 0.0941427 0.595615 0.358534 0.121956 
0.596961 0.347504 0.198182 0.576198 0.388624 0.266499 0.610383 0.313698 0.26218 
0.540919 0.469476 0.209717 0.508883 0.557418 0.218575 0.603481 0.328686 0.0358989 
0.5666 0.417696 0.159183 0.484069 0.623891 0.0378755 0.608738 0.474523 0.0466256 
0.546061 0.474792 0.0985069 0.549643 0.447958 0.268477 0.565223 0.571379 0.262772 
0.527536 0.512164 0.159588 0.550912 0.668388 0.0308594 0.445454 0.711312 0.0788291 
0.517569 0.697629 0.10647 0.471797 0.753089 0.178284 0.551412 0.547903 0.101819 
0.523089 0.657954 0.266701 0.446374 0.696876 0.145749 0.415123 0.777153 0.214472 
0.501048 0.680499 0.16975 0.554789 0.577099 0.168196 0.494246 0.779765 0.0922281 
0.535746 0.760195 0.146359 0.459226 0.814323 0.0363744 0.508444 0.724084 0.0397544 
0.484579 0.817554 0.150791 0.437175 0.835534 0.112975 0.364756 0.893663 0.269731 
0.499473 0.769177 0.260789 0.538826 0.617166 0.219114 0.563461 0.747425 0.220266 
0.468004 0.815304 0.21364 0.507043 0.705405 0.226348 0.459973 0.889032 0.0399229 
0.520432 0.853278 0.0354537 0.535906 0.790656 0.0326226 0.454077 0.875409 0.177605 
0.495644 0.849521 0.0951277 0.464385 0.869788 0.260663 0.43867 0.803296 0.269008 
0.417322 0.95163 0.0373634 0.373558 1.0891 0.0325886 0.466118 1.00429 0.0331272 
0.40081 0.996362 0.0951354 0.416073 0.947753 0.150994 0.468727 0.964151 0.0914377 
0.485392 0.940484 0.262814 0.419695 0.972202 0.26148 0.535185 0.982679 0.2689 
0.460721 0.951087 0.203331 0.383903 1.02382 0.0323967 0.365563 1.05404 0.0848163 
0.463325 1.03201 0.0901945 0.362889 1.0627 0.158335 0.395639 1.00438 0.196823 
0.441784 1.0508 0.264237 0.377224 1.02882 0.267487 0.483244 1.00294 0.236646 
0.457426 1.13562 0.038542 0.470548 1.08288 0.123106 0.427521 1.04168 0.13916 
0.360871 1.09001 0.269156 0.526926 1.17816 0.175701 0.489895 1.10176 0.267804 
0.407766 1.08798 0.21339 0.429881 1.13331 0.264219 0.445485 1.11996 0.16696 
0.35878 1.16012 0.260112 0.511202 1.18681 0.0383117 0.498786 1.14652 0.120231 
0.437323 1.2054 0.0341932 0.370003 1.20123 0.100944 0.381276 1.13304 0.16589 
0.33888 1.2365 0.260951 0.453336 1.16723 0.207825 0.40273 1.20622 0.221809 
0.469373 1.19066 0.266121 0.487559 1.25477 0.0362705 0.312777 1.21207 0.137331 
0.460576 1.24874 0.225631 0.300364 1.21254 0.203953 0.474992 1.21141 0.169864 
0.373516 1.22772 0.1637 0.639439 0.231878 0.179758 0.563982 0.413134 0.031674 
0.660081 0.19283 0.0572128 0.660576 0.287855 0.213347 0.640262 0.240902 0.263508 
0.668844 0.174689 0.207399 0.642484 0.224027 0.115767 0.631217 0.404854 0.0363428 
0.592018 0.422432 0.0893342 0.527121 0.509598 0.265846 0.605986 0.486214 0.263105 
0.617297 0.291306 0.15896 0.639553 0.377271 0.246483 0.613963 0.459835 0.135963 
0.58837 0.546204 0.0375218 0.660618 0.42284 0.101223 0.53448 0.635693 0.131381 
0.605315 0.528247 0.146907 0.576388 0.523823 0.211925 0.592842 0.433054 0.220391 
0.613429 0.623302 0.266297 0.603819 0.717191 0.039031 0.555315 0.609494 0.064556 
0.570027 0.733071 0.0989735 0.566684 0.69714 0.158038 0.600052 0.709292 0.268229 
0.592167 0.633744 0.175084 0.645043 0.639203 0.211426 0.571727 0.671619 0.224469 
0.597493 0.75773 0.160007 0.587277 0.666202 0.0956519 0.639249 0.786756 0.0390309 
0.561971 0.795353 0.0909633 0.541068 0.813316 0.18998 0.545499 0.831378 0.261832 
0.616511 0.773687 0.265252 0.515459 0.87232 0.211325 0.625618 0.70795 0.2015 
0.60051 0.820049 0.221417 0.585075 0.836669 0.0347558 0.561072 0.858791 0.0930219 
0.565943 0.908454 0.0397009 0.504027 0.942748 0.031544 0.552238 0.908802 0.260437 
0.598569 0.966295 0.265548 0.52867 0.862052 0.146397 0.506112 0.922162 0.171225 
0.535852 1.00207 0.0513644 0.522947 0.914851 0.10504 0.473124 1.05826 0.190382 
0.469136 0.994896 0.155249 0.537774 0.987994 0.137538 0.518346 1.04563 0.269178 
0.570595 0.943902 0.192195 0.436591 1.06542 0.03478 0.538691 1.1234 0.03357 
0.573277 1.06359 0.0351738 0.504186 1.06345 0.0328709 0.55227 1.1069 0.0955255 
0.522862 1.04939 0.104289 0.542578 1.00765 0.20905 0.50316 1.12456 0.204801 
0.538986 1.23312 0.0892264 0.574584 1.21069 0.032288 0.564194 1.1757 0.122849 
0.522837 1.08954 0.153163 0.605119 1.08625 0.268672 0.540452 1.23687 0.159298 
0.534133 1.21087 0.23767 0.567241 1.12863 0.179769 0.556986 1.07213 0.214803 
0.553659 1.13556 0.259467 0.640236 1.20631 0.0426335 0.622419 1.20854 0.110025 
0.465287 1.21377 0.100839 0.647711 1.23468 0.221437 0.595698 1.19734 0.186283 
0.773184 1.16618 0.20577 0.678942 0.130986 0.0400332 0.693182 0.119814 0.114156 
0.721562 0.0322023 0.193197 0.682141 0.133951 0.265509 0.697693 0.0948691 0.182945 
0.636854 0.261979 0.0387335 0.696526 0.315239 0.03966 0.701952 0.225494 0.150788 
0.704612 0.265901 0.267352 0.640152 0.405495 0.173669 0.695474 0.199628 0.267449 
0.678925 0.326665 0.266702 0.663305 0.336131 0.138051 0.678802 0.457531 0.0409434 
0.656504 0.493937 0.0968291 0.651413 0.354996 0.077539 0.68541 0.46638 0.157492 
0.650294 0.460304 0.216865 0.682173 0.278508 0.104475 0.729567 0.41188 0.197934 
0.69095 0.353761 0.201492 0.611937 0.643539 0.0351636 0.660637 0.524544 0.0349371 
0.635735 0.558109 0.0893057 0.595679 0.600127 0.119848 0.648345 0.605709 0.156766 
0.664122 0.682675 0.262131 0.639133 0.544946 0.269081 0.687559 0.581319 0.207366 
0.617489 0.577679 0.209369 0.674046 0.545714 0.150212 0.678472 0.515102 0.20641 
0.629832 0.714011 0.122747 0.658405 0.652764 0.0926126 0.697727 0.572149 0.0976607 
0.709271 0.625891 0.140565 0.717021 0.646549 0.206469 0.66198 0.821474 0.2687 
0.66581 0.670915 0.160332 0.624411 0.801528 0.117157 0.648081 0.874964 0.0391018 
0.689599 0.760031 0.0793524 0.708152 0.700656 0.0860738 0.680974 0.762075 0.148959 
0.637847 0.774125 0.203153 0.697104 0.715169 0.205137 0.614034 0.86618 0.265677 
0.58245 0.870873 0.183034 0.614958 0.967728 0.0372509 0.668523 0.983385 0.076556 
0.631222 0.867562 0.10643 0.644279 0.925827 0.0882401 0.587145 0.906434 0.124988 
0.61012 0.965837 0.138886 0.635279 0.983178 0.209848 0.678234 0.847496 0.147872 
0.635557 0.920973 0.233664 0.643482 0.862579 0.207375 0.632429 0.914788 0.169058 
0.631046 1.10687 0.0300622 0.6422 1.03825 0.0393212 0.6947 1.09064 0.0358781 
0.575016 0.955342 0.0905763 0.595124 1.01947 0.0955236 0.667698 1.04133 0.115406 
0.57841 1.02942 0.260384 0.614148 1.02373 0.16191 0.672504 1.02969 0.183713 
0.616495 1.08842 0.0907724 0.623004 1.14202 0.138179 0.697152 1.16356 0.0370854 
0.595453 1.15259 0.0646006 0.5821 1.07574 0.145995 0.624161 1.05471 0.217018 
0.741772 1.13039 0.0834507 0.6366 1.13158 0.223616 0.661243 1.09086 0.167675 
0.603609 1.19391 0.263611 0.749748 1.21059 0.033559 0.79194 1.17977 0.101462 
0.690315 1.16834 0.10614 0.673364 1.19686 0.168586 0.677326 1.18607 0.261159 
0.721621 0.0828927 0.0341653 0.753459 0.121139 0.0770069 0.718009 0.049455 0.11966 
0.784005 0.0579667 0.126864 0.723589 0.041142 0.262317 0.735677 0.105031 0.243629 
0.707658 0.241483 0.0350599 0.750201 0.180777 0.0391969 0.7682 0.266051 0.0304548 
0.736085 0.178679 0.110603 0.727193 0.156278 0.172455 0.756165 0.166709 0.263424 
0.77378 0.229522 0.154803 0.76983 0.241903 0.262855 0.731923 0.209135 0.212731 
0.703416 0.390923 0.0363946 0.765989 0.327864 0.0314015 0.721205 0.333232 0.103395 
0.747504 0.251218 0.0925678 0.733755 0.417655 0.0925059 0.764915 0.373258 0.127948 
0.704141 0.387529 0.141397 0.748355 0.319324 0.263013 0.733382 0.281027 0.197327 
0.697096 0.420624 0.260496 0.725497 0.511805 0.0882021 0.751083 0.463318 0.0378092 
0.79617 0.483089 0.0866023 0.755081 0.468241 0.136256 0.790808 0.418636 0.17104 
0.675789 0.492189 0.266651 0.804397 0.511742 0.264177 0.772974 0.39889 0.260576 
0.741589 0.480626 0.245729 0.718232 0.547416 0.263651 0.670364 0.597842 0.0391188 
0.693349 0.664221 0.0315319 0.738004 0.531696 0.176414 0.761784 0.579772 0.122344 
0.678866 0.612662 0.267401 0.753299 0.584905 0.216415 0.743444 0.620944 0.267492 
0.673489 0.723908 0.0313863 0.747623 0.747007 0.111969 0.757742 0.690709 0.0386309 
0.728247 0.754239 0.0312097 0.747672 0.654412 0.0972272 0.740309 0.691979 0.26113 
0.688883 0.815017 0.208757 0.727621 0.690754 0.147399 0.751943 0.743958 0.178832 
0.692344 0.744464 0.269539 0.702148 0.932674 0.0399822 0.717801 0.851439 0.0346087 
0.681787 0.823155 0.0843589 0.694395 0.886419 0.095117 0.740419 0.808784 0.159382 
0.738794 0.836102 0.260085 0.730788 0.770513 0.230578 0.681187 0.884298 0.265522 
0.712539 0.876267 0.207942 0.688098 0.949433 0.268913 0.717864 1.0185 0.0398208 
0.72594 1.06721 0.0893268 0.728553 0.950097 0.107476 0.689509 0.944825 0.205827 
0.672119 0.974666 0.138939 0.692617 0.91675 0.150029 0.731185 1.00754 0.154815 
[...]
POINT_DATA 1274
FIELD FieldData 10
VELOCITY 3 1274 double
0.00040307427297 -0.0011829087885 0.00012478754034 0.00027772398442 -0.00060510596599 -0.0001712779495 0.00057114697917 -0.0013905314993 -5.2199973182e-06 
0.00029674372745 -0.00028638562039 -0.0010770439356 0.0005985599753 -0.00097236892501 2.5214534361e-05 0.00039511434345 -0.00072807091106 0.00056329999291 
0.000156749663 -0.00065338960868 -0.00031796338457 -6.8039134638e-05 -0.00075401301865 -3.1200941143e-05 0.00050636212547 -0.0011900439586 -0.00030860593116 
-3.343735823e-05 -0.00065806431669 0.00052271267632 0.00047391136087 -0.00068417965703 0.00054624633734 0.00045233869567 -0.0010664922447 2.8464958687e-05 
0.00025921858453 -0.00062221254429 -4.9725333056e-06 0.00049065504875 -0.00123276115 0.00056299298526 0.00041170795616 -0.00077193477951 -0.00015379628732 
0.00034660995571 -0.00092681963925 -0.00024739400145 0.00043647749123 -0.0010800315598 -3.1412538373e-05 0.00056812269321 -0.0013541345081 -1.2583098129e-05 
0.00044982349535 -0.00077680786308 -6.1494817642e-05 0.00059803674713 -0.0007822449566 -0.00021172078377 0.00049629163483 -0.0011009636852 1.9588120799e-05 
0.00023264349559 -0.00087916247461 0.00010025424995 0.00022335414359 -0.00052328922098 -0.00019257960473 0.00025486865959 -0.0007420549935 -7.9018979996e-05 
0.00057711596362 -0.0014149537534 0.00044306252793 0.00037408437318 -0.00074495101744 0.00015935575291 0.00019895940906 -0.00053102915914 3.8450575186e-05 
0.00052794718887 -0.0012945235642 3.985950533e-06 0.00051399375768 -0.0010821594799 -0.00054561464465 0.0003328119817 -0.00075910845925 -0.00050378464839 
8.379736546e-05 -0.0014835812973 3.3870101944e-05 0.00027444128602 -0.00078176226067 -5.9696356841e-05 0.00033174633073 -0.00078824363319 -0.00014009415937 
0.00056033597905 -0.0011759189616 -0.00037375699747 0.00081931531921 -0.0011527538965 0.00041223768514 0.00032855259364 -0.00078043869669 -1.4545599545e-05 
0.00047762160899 -0.0010506550588 -0.00010353044711 0.00033366448972 -0.000740559517 -0.00021798168892 0.00017739474826 -0.00087005294409 -0.00010530135903 
0.00016943737761 -0.00043888003365 -7.6749872538e-06 0.00058729573366 -0.0013498715936 -0.00031907915552 0.00032043380153 -0.00077602918991 3.4215744534e-06 
0.00027233055213 -0.00071290585667 -0.00016075341816 -2.1586121662e-05 -0.00053144638075 -2.6599358977e-05 0.00035123292402 -0.00081640481804 -0.0003041629103 
0.00065966090563 -0.0013092671528 1.8671867369e-05 0.00015774595032 -0.00037077697219 -0.00011151380759 0.00031096995783 -0.00075146605052 -0.00036587293157 
-4.1628234016e-05 0.0010913008119 3.0336169753e-06 -0.001150427204 -0.00021806341248 -0.00075693147879 -3.995078231e-05 -0.00029458909464 0.00076610324323 
0.00029569373595 -0.00066696103623 0.00069566181225 0.00046632176169 -0.0024816005488 -0.0011363348085 0.00043823643978 -0.0011790193705 0.00036034793496 
0.0002394788229 -0.00067437341535 -5.0338574548e-05 0.00047287370935 -0.00090354858602 -0.00035839751696 8.6945990197e-05 -0.00023125577885 1.1549290703e-07 
3.9753436102e-05 0.00051391800687 -0.00038991925683 4.5456543714e-05 -9.0090726294e-05 6.4900412358e-05 -0.0013966075319 -0.0014004566224 -0.0015161728382 
9.8140247602e-05 -0.00025099255221 -3.1420421901e-05 0.00097550104127 -0.0004206581736 0.00026889972392 0.00030421348015 -0.00075765636546 1.7151106115e-05 
2.9188682495e-05 -0.00068069176153 0.00018693349522 -0.00025030140049 -0.0012144450558 0.00043994784087 6.1108872476e-05 -3.7497861767e-05 0.0003996230982 
0.00025046196121 -0.00060013678695 0.00018540441138 0.00027868401629 -0.00071647497338 -0.00033149074129 9.1995274033e-05 -0.00040511157026 0.0011001880951 
-0.00017667192567 -0.00082010732379 5.4631215122e-05 0.00039777827704 -0.00074704858084 -0.00032954466931 0.0004609207099 -0.0011131117727 1.8677546736e-05 
-2.0915635845e-05 -0.00077281967439 -0.00028590031722 0.00022742200254 -0.00078932810294 -0.00043677418885 0.00016649674294 -0.00083577371442 -3.0575145379e-05 
0.00074962387178 -0.0016679843619 0.00067339816471 0.00067231928298 -0.00097271855844 -2.2177373507e-06 0.00036081418058 -0.0010483907577 0.00020362461563 
0.00049241062628 -0.00093063072366 0.00018676136741 0.00033259817886 -0.00071529026962 -0.00047076965481 0.00049725470696 -0.0010706861288 7.8270562965e-06 
0.00010442333244 -0.00058842299706 -0.00036035658496 0.00062860146268 -0.0012097875752 0.00044254993794 0.00048257926664 -0.0015373166184 0.00027964166007 
0.00015653779799 -0.00071137227638 -9.6647877759e-06 0.00015769520413 -0.0013795944074 -0.00089338976662 -3.0204487427e-05 -0.0009906317494 -0.00044288865306 
-6.968489881e-05 -0.00130425982 0.00076047801436 0.00054209997568 -0.0012495163041 -0.00060696765826 -8.2139665697e-07 -0.00092939228947 -0.00020923977927 
0.00090759897495 -0.0011432562947 -0.00014358142471 -0.00061632521484 -0.00092740699741 6.305938217e-05 0.00023565437892 -0.00099937325935 3.1921109697e-05 
0.00080053198128 -0.00057093309103 0.00013354048522 0.00018794909479 -0.0010015070971 1.5316024601e-05 0.00037976273566 -0.00091304671622 -0.00010411801739 
0.00037041997029 -0.0010506810192 0.00027042356848 0.00056876608581 -0.00083175478801 0.00042822952554 0.00077850948975 -0.00058159706807 0.00034388343827 
-9.221379021e-05 -0.0010103266838 0.00072766338975 0.00029855377402 -0.00070999291101 -0.00014980760907 0.00039403938141 -0.0013772971277 1.1163476953e-06 
0.00075881133703 -0.0011850780863 0.00031612646834 0.0005017524522 -0.0014441237441 5.9518595823e-05 0.00026649617371 -0.0011834929744 -0.00014836411534 
-0.00033031422157 -0.00096487259747 4.3519333301e-05 8.9727126722e-05 -0.00096646876474 0.00015356907389 0.00032770870999 -0.00093834812684 -7.9892878967e-05 
0.00014659727861 -0.00094813576164 -1.7211127668e-05 0.00011867551133 -0.00088708121383 0.00029628671231 0.00042053636413 -0.0011290276028 0.00052364235955 
0.0008000555528 -0.0011689502077 -8.3762140874e-05 0.00015958308329 -0.00082998861437 -0.00014092177994 0.00020556278071 -0.00085921037433 0.00035834993266 
-0.00018823120046 -0.0009084345344 -1.5375316324e-05 0.00067405356952 -0.00113874382 0.00039604910953 0.00052603072995 -0.0010350663164 6.3430033966e-05 
6.3806360676e-05 -0.00089179262055 8.8606898517e-05 0.00052119002214 -0.0010895625202 1.2269721179e-05 0.00022340250501 -0.0010927789218 0.00017066895685 
-0.00017103015381 -0.00092394496851 -5.4085050865e-05 0.00031744451579 -0.00065736977739 -6.1137938191e-05 0.00041293042398 -0.0009817110723 0.00049054869318 
0.00073663017887 -0.001095573155 -1.0197955835e-05 0.00021119880461 -0.0013431908585 0.00017517001515 0.0002155425606 -0.00087884462115 -0.00054686088499 
-5.7293217196e-05 -0.00086574830711 1.0136240052e-05 0.00016579940203 -0.0011558734963 0.0001240478044 0.00052798816392 -0.00083048509063 0.00087413449699 
0.00034439314335 -0.0010006012207 9.8181568988e-06 0.00027867563268 -0.00063174010721 -1.9135515711e-05 0.00035235637669 -0.00079168217073 -7.027908215e-05 
0.00074740975366 -0.0010481859965 -9.2128869679e-05 1.2867071325e-05 -0.00079557498979 -0.00015074334905 0.00048128867832 -0.0014244648936 8.8835253292e-05 
0.00041237602424 -0.0020702618746 0.00048820302535 -0.00035644869406 0.00043603741069 0.00052114205907 -0.00019973293096 0.0010059519169 -0.00023667122764 
4.2999120585e-05 -5.3801578031e-05 0.00028572488399 -0.00081024919326 -0.0006134540244 -0.00031878245529 -0.00010904398723 0.00040799321241 0.00052036585466 
-8.0871754438e-05 0.00020582896255 0.00012554026094 -0.000102347018 -0.00047457226822 0.000742162562 -0.0022329941898 -0.0023507559371 0.00027864969211 
0.00084092309806 0.00017093029362 7.2931212486e-05 -7.0131960792e-06 -0.00071182883894 -3.923261043e-05 0.00054006623739 -0.0009970075825 0.00066813766931 
-6.5667635562e-06 0.0010239396145 -0.00048206659986 0.00065957131493 -0.00026292611943 0.0014257254371 0.00024260776075 -0.00088878833498 0.00068473429418 
0.00053552432294 -0.00065833138306 -1.5553265361e-05 0.00057993763707 -0.0002322125911 -0.00073115647588 0.00011872970998 -0.00067722830061 -0.00021369993117 
0.0009751502507 -0.00038128657042 -0.00029669309069 0.00053419032342 -0.00095725562866 0.00010728958593 0.00022333499193 -0.00014843206311 0.00060059053417 
-5.1923247215e-05 -0.00066218028064 -3.6842157953e-05 -0.00012586390836 -0.0011029112969 -0.00014813608817 4.7899602091e-05 -0.00096901962581 -0.00041666493224 
0.00067136815657 -0.00074526507867 0.00020632406957 0.00057993590042 -0.0013572658125 4.8848399697e-05 0.00016299028222 -0.0009793766582 8.6165710015e-05 
0.00040731864438 -0.00074212401199 0.00065065887958 0.00079675095724 -0.00087209575328 0.00010724274072 -0.00031898165953 -0.00058495900696 -0.00029026138067 
-0.0012390680111 0.00016432874492 -0.0002548743164 -2.3921334106e-05 -0.00039068416041 -0.00052912999681 0.00015393388087 -0.0010788453831 -3.0731150155e-05 
0.00028016324828 -0.0014231424969 0.00016862804683 -0.00046353186129 -0.0006917768911 -0.00010151285442 0.00052636649111 -0.0010358610957 -5.1679543012e-05 
7.0348608461e-05 -0.00072615164491 1.20052947e-05 -0.00021460049934 -0.00098814011552 0.00044644156878 0.00026388467728 -0.00083965732264 0.00020674358695 
0.00036058997019 -0.0013214119532 -0.00020312104071 4.0100750579e-05 -0.0010007925073 4.092240353e-05 -1.6610378899e-05 -0.0015018264188 0.00014441443283 
-0.00039588646522 -0.001069067016 9.7567621007e-05 -2.7495708032e-05 -0.00084012279794 5.5833140546e-05 0.00027845829733 -0.0010253018605 -1.3190480163e-05 
0.00046913207408 -0.0010965209197 -5.4144979063e-06 1.9245131735e-06 -0.00056382868834 0.00026712557618 0.00015921084252 -0.0010222674054 -0.00063043871901 
0.00048727858706 -0.0012728489273 0.0004864826118 0.00034069832689 -0.0012804490872 -0.00060236068292 -6.3389867345e-05 -0.0010332442997 0.00080412096445 
0.00054449424763 -0.00067673442254 0.0002130705187 0.00039774762088 -0.00060119049262 -0.00016065311511 0.00050260153462 -0.0010530510066 1.2303922575e-05 
1.0786893807e-05 -0.00066610478761 5.2850886537e-05 0.00014834642763 -0.0010162245859 0.00012111702183 0.00019485420517 -0.00068785130364 -2.6010314712e-05 
4.7881580828e-05 -0.0011196748868 -1.163010111e-05 0.00013926701518 -0.0016062221089 1.932027326e-05 0.00022682665124 -0.00089103873624 -0.00016241479994 
-0.00023984458155 -0.000728692288 -0.0002648307225 -0.00022215280645 -0.00078194858958 -0.00015157151577 0.00020192041176 -0.0010219475111 0.00023431767268 
0.00049945851425 -0.0011833761515 0.00020316159121 0.00040754751612 -0.00086927183767 2.003893224e-05 0.00058262436469 -0.0012461545322 -6.0062358368e-06 
0.00011342581409 -0.0017556181625 0.00053336235673 0.00039968660017 -0.0011163763076 -5.2153641943e-05 0.00062729524099 -0.0011906839339 0.00018490727164 
0.00020199266243 -0.00026321576802 -1.7371381199e-05 0.00066017139686 -0.0011756464129 -0.00029264986702 0.00019088819582 -0.00088173783675 9.4146978144e-06 
0.00052622067283 -0.00099409724771 -9.6880241385e-06 0.00044730986329 -0.0014282389263 -0.00038775807702 0.00060157494158 -0.0015026571956 -0.00029427659726 
0.00050253272119 -0.0010110169452 0.00010532491399 0.00067437575122 -0.0011154417041 -5.6884742463e-05 0.0007060833589 -0.0011905862729 -6.8090707981e-05 
0.00020192309298 -0.0015702375854 -0.00023810217539 -5.550520575e-05 4.2223320792e-05 -0.00035101015404 -1.5314024316e-05 -0.00018452917507 0.00074050665896 
-1.2535671378e-05 4.1480101074e-05 0.00053279871901 -0.00019805830689 0.00016513859792 -0.00017627607652 -7.5685193741e-05 0.00028235695383 0.0012817178261 
8.1193166546e-05 -0.00024425236482 0.00019760261012 -0.00093175510692 -0.00026953565171 -0.00059776348094 -5.0930072601e-05 0.00076261265942 0.00044798655555 
3.6344553899e-05 -0.00028044644255 -0.00020079219618 -9.3365827464e-05 -0.00068489513449 -6.1497964916e-05 -4.6781466826e-05 0.00010969811001 -1.9076515384e-05 
0.0026325764413 -6.8193375271e-06 -5.3217243396e-05 -0.00113260581 -0.00078377656671 0.00073471500303 -0.00072684899037 -0.00077412706978 -0.00068013934226 
-0.0021160880873 -0.0010969068081 -0.00025310868831 0.00057982223569 -0.00084619388669 0.00040853730029 -0.00061104558326 -0.00038293766503 -0.00060682957555 
0.00071589520272 -0.0017209210353 -4.6574609872e-05 0.00034272478904 -0.00015334377072 -0.00029106075628 0.00049603430319 3.4685067709e-05 0.00027991757451 
0.00050268387375 0.00017900221256 0.00013594373417 0.00021146922585 -0.0012099452292 1.2307962275e-05 -0.0014736090324 -0.00073138895725 -0.00024001107634 
0.00029697879518 -0.00022253568715 0.00031022628564 4.9375875276e-05 0.00038581628877 6.3266018098e-05 0.00038573537499 -0.0014596778746 -0.00025133699036 
0.00028670588772 -0.00092700609907 6.2615634021e-06 0.00094571533034 -0.0010602749571 4.0795370097e-07 0.00033572679429 -0.0010311465169 0.00022889176846 
0.00028315956045 -0.00067194800443 0.00013950544742 0.00099123279234 -4.7514601825e-05 0.00098922487486 -0.00051411338278 -0.0017723092384 3.8442185489e-07 
0.00068568041891 -0.001349800837 0.0001577257878 -0.00033235204988 -0.0016706558602 0.00046848204311 0.00029575214885 -0.0019824426944 -0.00048822590882 
0.00017226840014 -0.0012244052023 0.00030254940536 -0.00023333836453 -0.0007908933105 0.00047659481673 0.0010600614912 -0.0019559233639 -0.00032409890281 
0.00028944426445 -0.0012698672875 0.00013104763717 0.00039259890931 -0.0010528604974 0.00057079664756 0.0003631736319 -0.0013509207095 4.2108975159e-05 
-0.0003100082542 -0.0022452342223 -0.00018797809689 -0.00045530775907 -0.0013291011369 0.00037731589938 -6.0866296812e-05 -0.00067288631692 -0.00044635477451 
0.00070878872174 -0.0020146587505 6.4230011121e-05 0.00035550399746 -0.0012679948364 -0.00038121462933 0.0012404493067 -0.0016763963229 3.054086238e-06 
-8.7215468162e-05 -0.00089975630241 0.00096069567824 -5.3430642164e-05 -0.001219526216 -0.00017172327008 -0.00021834842125 -0.0010968152348 0.00020234388478 
0.0010177116105 -0.00092342317168 0.00030684796011 0.00054259977864 -0.0010421323487 -0.00031615380373 0.0002800203521 -0.0014149771558 -0.00035774550217 
5.7917660017e-05 -0.0011576463561 -0.00014292371603 0.00049601086517 -0.0013257820915 -4.4529056306e-05 0.0013124531333 -0.0014400604615 -2.7629016177e-05 
0.00010606183195 -0.0013801758123 -1.542375605e-05 0.00080381764152 -0.0022401458497 -0.0021711634813 -0.00042078429816 -0.0007817722551 -0.00035279564305 
0.0006710047911 -0.00083600031344 2.2613395457e-05 8.5238285829e-05 -0.0012242454264 -0.00060034562892 0.00035873737861 -0.0015443027497 -4.2165703983e-05 
7.025899838e-05 -0.00092966881221 -0.00012984502752 0.00092836403866 -0.0013150869199 -2.3782696803e-05 0.0006879260717 -0.00077770810704 -7.5319225391e-05 
0.00049550745137 -0.0010801367283 -0.00024329024838 0.00041494774214 -0.0010971460229 0.0001804886039 0.00041471230028 -0.0017259793134 -0.0004388436821 
8.2756669672e-05 -0.0012742364016 -0.00029201926828 0.00080860322455 -0.0012874229141 7.1229945081e-06 0.00041012453024 -0.0015538729794 3.7189914883e-05 
0.00046695473502 -0.00097237022961 -0.0001009913624 9.3217925216e-05 -0.0013619315054 -0.0002060214627 0.00074103488307 -0.00094234693536 -3.7849069801e-07 
0.00075636544831 -0.0010088460101 0.00014140809555 0.00086976320594 -0.0011124204675 0.00025729347062 0.00040501360587 -0.0014254737533 0.00026901882463 
0.0001774650582 -0.00076271828093 8.5879489143e-06 0.00042257239711 -0.0015727278516 -1.1746744877e-05 0.0012136562322 -0.0017825025608 0.0010701878645 
0.00067809612924 -0.00083240267061 -2.2995886583e-05 0.00085563261955 -0.0016061103434 0.00039412303842 9.7684591205e-05 -0.00087224744942 0.00064829635546 
0.00039927434734 0.00035490495422 -3.4616723908e-05 0.0001981266974 -0.00074477252483 0.00065041389354 7.0513213207e-05 3.216072265e-05 0.0011522708331 
-0.00042823420626 -0.0009970733417 0.001254382943 7.9570291053e-05 -0.00017378474076 -0.00055348156472 0.00058074755293 0.0006222883183 0.0005670318389 
0.00035301252979 -0.00011134020817 0.001253280572 -0.00099934712706 -0.0012463309644 -0.00046397800022 0.00012976996657 0.001344307053 -0.001035169145 
6.1298152116e-05 -0.00022419895199 0.0010732796712 -0.00054406278246 0.00016666537406 -0.00078203120428 -0.00075759999722 -0.00069996338258 0.00018916265494 
-0.0003659029215 -0.000449738457 -0.0004269710945 0.00013508093346 -0.00066237481478 0.00030723347267 0.00016825721597 -1.0830564354e-05 9.3580913276e-05 
0.00034398753249 -0.00038359304556 0.00032251739459 0.00069682792151 -0.00079137215707 0.00080212202468 0.00049853080238 -0.00010965868836 -0.00021889558554 
-0.0003283969751 -0.0011535429935 6.3834170961e-05 0.00047234040517 -0.00039246570154 -0.00011467709615 0.00025588808025 9.0939604289e-05 0.00014342886211 
0.00010194330654 0.00030610302636 0.00047953507872 0.00035633571928 -0.00061820603185 -0.00056470916215 -7.9856398398e-05 -0.00024185101217 0.00070471371289 
-0.00010172116333 0.00060480343036 -0.00028974299383 -0.0012315174845 -0.0014020915409 0.0010788490452 -0.0009413581568 -0.00053849330994 0.00011624731727 
-0.0014370929398 -0.00024678348101 -0.00044505276198 -0.00012295171121 -0.00086262670684 0.00085109449277 0.00053590211465 -0.00028616720316 0.00050528061681 
0.0012455773927 -0.00025716318243 -1.7052340222e-05 0.00010960864574 -0.00021419725404 9.4585632231e-05 -0.00066108914314 -0.001252265739 -8.5937372016e-05 
0.0007002589066 -0.00022046944683 -0.00053306418809 -0.00026970450928 -0.00065565361583 -1.0129799826e-05 0.0012296131134 -0.00046907445035 -8.4662661455e-05 
-0.00066691974058 -0.00069906414068 7.8961955554e-05 0.00060504237206 -0.0010199697708 0.00042788055665 0.00035961580745 -0.00042621563427 0.00074224586859 
-0.00012130275537 -0.00060316246607 -1.9544974589e-05 0.00033201936746 -0.00055224094272 -1.8031509605e-05 -0.00018022446111 -0.00074780231417 0.00011110770843 
0.00018037989455 -0.00036839085755 -0.0013784408405 -0.00043304297292 -0.0012872428449 -0.00013288372716 -0.00064576322366 -0.00090841064766 0.00026815445371 
0.00043970684787 0.0002580882501 -5.2753887618e-05 -0.00040823064414 -0.0011911743183 3.6924386468e-05 0.00047737805983 -0.00061039357588 3.6521455726e-06 
0.0011777238566 -0.0018427558938 -0.00028590009097 0.00039339039127 -0.001273781083 0.00021400874825 -0.00013732655185 -0.0010177444493 -0.0011814919131 
-0.033730906251 0.014678576142 -0.00010955967121 -6.5178505281e-05 -0.00097600164796 3.6941067321e-05 0.00063286545892 -0.0018167863626 -4.7530507255e-05 
-0.00021592776769 -0.001209327282 -0.00042540343278 0.00050510338817 -0.0016823216703 -0.00018714806131 0.00034849201797 -0.0013493880481 -0.0014968954874 
0.00061152775 -0.00098686263984 4.5259386775e-05 -0.0124430803 -0.014795832042 0.001089382373 -6.6603345213e-05 -0.0016973144374 -3.2065874624e-05 
-0.00023378892304 -0.0014622118741 0.00026696812107 0.00024758450681 -0.0020699643499 -1.7626075017e-05 5.847235605e-05 -0.0012761525634 2.9263601362e-05 
0.0004569717995 -0.0010706331153 -0.00053831549955 0.00035089565995 -0.0015864279391 1.4853671972e-05 -5.4686360212e-05 -0.0016472692796 -0.00018662895078 
0.00021274210227 -0.00083437306774 -0.0003838522282 -0.00031623318509 -0.0014415944942 -0.00045222270922 0.00068199655162 -0.0016917227693 -0.00038436290556 
0.00050956251351 -0.0011207854757 6.683941678e-06 0.00021819856226 -0.0023889583214 7.2430087233e-05 0.00033825470804 -0.0021076267336 -3.2180092394e-05 
0.00039289203377 -0.001170625745 5.2167984494e-05 0.00052433005906 -0.0013687098305 -1.2880655707e-05 -7.4037585827e-05 -0.0014239374697 8.9160965203e-05 
0.000550041442 -0.0018704708452 -8.6052616726e-05 0.00067456801483 -0.0008283135008 -7.7388773363e-05 -0.00010625460161 -0.0022357692102 -0.00039285698564 
0.00036305857759 -0.002192840383 5.6380073238e-06 0.00041545675415 -0.0016849172042 9.3431825429e-05 0.00043648102549 -0.0015379464173 0.0005277183986 
0.00014521348431 -0.0022977709569 0.00026137596959 0.00066982310162 -0.0011433309299 0.00021385675864 0.00024914207306 -0.00070750628489 1.444518401e-05 