# vtk DataFile Version 4.1
vtk output
ASCII
DATASET UNSTRUCTURED_GRID
POINTS 1274 float
0.511763 0.556817 0.0379541 0.468854 0.652852 0.105462 0.494766 0.603145 0.268458 
0.4941 0.589165 0.099691 0.42283 0.758011 0.0323166 0.423706 0.770277 0.118041 
0.475132 0.638487 0.212558 0.460425 0.671119 0.268643 0.392641 0.848226 0.0598331 
0.397683 0.814506 0.16323 0.444696 0.702307 0.215656 0.431294 0.742459 0.265756 
0.361756 0.905416 0.0319641 0.342246 0.971867 0.0484764 0.380413 0.880624 0.146506 
0.393678 0.847115 0.232691 0.343939 0.96097 0.260929 0.312334 1.04318 0.0387165 
0.388265 0.916877 0.0870889 0.445207 0.901287 0.110723 0.330428 1.0006 0.128843 
0.408721 0.917552 0.21862 0.309546 1.03985 0.265122 0.35128 0.931254 0.188664 
0.280033 1.10567 0.0507956 0.327149 0.989821 0.199298 0.285729 1.11036 0.260298 
0.272669 1.16931 0.0336649 0.361438 1.11956 0.107573 0.300842 1.07144 0.110046 
0.246887 1.27498 0.0382186 0.302001 1.04748 0.200317 0.284698 1.10403 0.173946 
0.246423 1.29183 0.105914 0.371822 1.16302 0.0367697 0.28237 1.15301 0.112031 
0.417646 1.16607 0.110015 0.259523 1.15338 0.209485 0.340256 1.11256 0.212468 
0.192145 1.3206 0.0332147 0.32162 1.2067 0.0661764 0.327351 1.16441 0.174261 
0.24366 1.2027 0.166358 0.284314 1.18515 0.264354 0.238875 1.2226 0.0945407 
0.320644 1.27152 0.0356629 0.235166 1.23359 0.234905 0.213641 1.26171 0.164391 
0.543646 0.468754 0.0302153 0.611105 0.296694 0.093838 0.594871 0.360344 0.120162 
0.59657 0.348456 0.196274 0.575756 0.389687 0.266497 0.609468 0.315854 0.260999 
0.54002 0.471667 0.210132 0.508118 0.559278 0.219517 0.603166 0.329483 0.0358992 
0.566169 0.418768 0.158797 0.482824 0.626915 0.0378795 0.610266 0.478088 0.0478343 
0.545504 0.476127 0.0985679 0.549205 0.449025 0.268406 0.564607 0.574498 0.262769 
0.526871 0.513777 0.159449 0.54917 0.670305 0.0308558 0.444836 0.712822 0.0777951 
0.517313 0.699111 0.105372 0.47001 0.755876 0.177869 0.550297 0.549324 0.100607 
0.524299 0.661237 0.266705 0.445692 0.698521 0.146521 0.413654 0.780739 0.214034 
0.50056 0.683222 0.170791 0.553555 0.578858 0.168688 0.49387 0.783473 0.091409 
0.534059 0.762517 0.146039 0.457034 0.817442 0.0363715 0.508142 0.727068 0.039748 
0.484082 0.820174 0.150609 0.436166 0.837709 0.113242 0.363183 0.897488 0.269732 
0.498555 0.771481 0.260801 0.538898 0.620626 0.218616 0.562531 0.749767 0.220269 
0.468168 0.817955 0.2136 0.50564 0.708536 0.227298 0.460104 0.892091 0.0400591 
0.520981 0.857072 0.0353934 0.534676 0.794027 0.0326244 0.453764 0.877836 0.178043 
0.496606 0.85318 0.0945295 0.467688 0.872509 0.260668 0.438685 0.807198 0.269026 
0.415785 0.953539 0.037361 0.373707 1.09378 0.0332399 0.46333 1.00639 0.033126 
0.398662 0.999949 0.093622 0.412217 0.951576 0.150127 0.466049 0.966495 0.0915921 
0.485853 0.943985 0.258504 0.419917 0.975094 0.261479 0.534058 0.987165 0.268901 
0.455102 0.960267 0.203302 0.381892 1.02932 0.0323962 0.364955 1.05892 0.0857761 
0.45859 1.03446 0.0898968 0.360613 1.06633 0.16056 0.395428 1.00817 0.197443 
0.440795 1.05306 0.264236 0.376298 1.03086 0.267276 0.484072 1.00835 0.234243 
0.443919 1.14145 0.0397264 0.458973 1.09183 0.12326 0.424242 1.04365 0.139981 
0.361154 1.09235 0.269156 0.507884 1.19095 0.181216 0.487498 1.10754 0.267873 
0.407309 1.09163 0.214076 0.427339 1.13878 0.264126 0.438618 1.13052 0.168148 
0.356504 1.16508 0.260112 0.46529 1.21245 0.0357084 0.494337 1.15174 0.119072 
0.394275 1.2303 0.0343923 0.370503 1.23956 0.104233 0.379818 1.20259 0.160382 
0.333453 1.24072 0.260787 0.446229 1.18525 0.198856 0.397454 1.23308 0.218498 
0.439183 1.20739 0.266098 0.444145 1.28122 0.0377416 0.301624 1.25591 0.111697 
0.392138 1.28979 0.262537 0.312611 1.22681 0.192386 0.446217 1.24306 0.175727 
0.360912 1.26724 0.165987 0.639582 0.231523 0.178115 0.564924 0.4108 0.0315275 
0.659961 0.193106 0.0549072 0.661401 0.287636 0.212368 0.639751 0.242129 0.263296 
0.668788 0.174821 0.206885 0.642971 0.222881 0.114366 0.632601 0.408564 0.0363377 
0.593002 0.425196 0.0893239 0.526666 0.510663 0.265848 0.603866 0.489612 0.262755 
0.617282 0.291309 0.15865 0.638619 0.378041 0.245166 0.61411 0.461305 0.137328 
0.586787 0.548643 0.0375174 0.660736 0.424484 0.102342 0.533357 0.637883 0.132503 
0.603408 0.529661 0.146624 0.574019 0.52698 0.211531 0.591456 0.43443 0.220346 
0.613357 0.625912 0.266304 0.603963 0.720762 0.0390373 0.555103 0.611839 0.0650373 
0.568791 0.736943 0.0981073 0.565632 0.700297 0.156744 0.599956 0.712459 0.268232 
0.589819 0.636405 0.17383 0.642141 0.644023 0.210581 0.572625 0.674579 0.224014 
0.595815 0.761168 0.159808 0.586328 0.667686 0.0964277 0.640456 0.78978 0.0390304 
0.562247 0.799155 0.0903392 0.541831 0.815721 0.189565 0.545079 0.833308 0.261828 
0.614975 0.77725 0.265242 0.516799 0.875492 0.209401 0.625268 0.712028 0.199966 
0.600338 0.825068 0.221012 0.58505 0.838495 0.0376266 0.559783 0.865556 0.0932142 
0.561596 0.915947 0.0397035 0.499253 0.94946 0.0315444 0.551945 0.910726 0.260436 
0.597073 0.969421 0.265547 0.527945 0.86496 0.147021 0.503314 0.927562 0.17551 
0.536553 1.007 0.0464538 0.521958 0.920687 0.109765 0.472058 1.0633 0.187998 
0.468081 0.999141 0.154337 0.537493 0.99172 0.14022 0.516128 1.05152 0.269186 
0.572273 0.947842 0.19383 0.436361 1.06869 0.0347793 0.536925 1.12767 0.0335715 
0.573834 1.0697 0.0351852 0.490279 1.09502 0.0679132 0.547897 1.10867 0.0974713 
0.515814 1.05411 0.113115 0.54489 1.01206 0.20991 0.493605 1.13202 0.205884 
0.517915 1.23051 0.0848318 0.565074 1.22128 0.0323846 0.561392 1.18183 0.113163 
0.521621 1.10044 0.156401 0.596406 1.09383 0.268667 0.509868 1.24646 0.152709 
0.507294 1.22399 0.243488 0.557293 1.14389 0.185398 0.561921 1.07616 0.209331 
0.548276 1.1464 0.259312 0.572157 1.28748 0.0343183 0.608062 1.23074 0.0863398 
0.443158 1.23913 0.101503 0.552138 1.28315 0.18236 0.578544 1.21514 0.178727 
0.647524 1.25527 0.215656 0.679106 0.130567 0.0409795 0.692848 0.120642 0.110176 
0.721563 0.0322005 0.193147 0.68179 0.134787 0.265517 0.697876 0.0944258 0.18684 
0.636407 0.262711 0.0387393 0.694032 0.315884 0.03966 0.702639 0.225829 0.148971 
0.70401 0.267309 0.267355 0.640512 0.40724 0.17524 0.694727 0.200552 0.267445 
0.678029 0.327944 0.266714 0.661958 0.337575 0.138147 0.680981 0.460312 0.0423767 
0.659301 0.496026 0.0972707 0.653354 0.359555 0.0782028 0.6856 0.468126 0.158736 
0.647594 0.464269 0.216504 0.679996 0.27954 0.104799 0.730701 0.434016 0.199566 
0.690764 0.354107 0.201301 0.610796 0.646978 0.0351629 0.66305 0.527246 0.034937 
0.634908 0.55879 0.0889357 0.59507 0.600449 0.120225 0.647615 0.609856 0.156526 
0.663768 0.685235 0.262139 0.638208 0.548676 0.269081 0.686465 0.584152 0.206817 
0.615782 0.580247 0.207661 0.671598 0.549191 0.149605 0.677382 0.517922 0.206372 
0.628473 0.717868 0.122357 0.657872 0.657779 0.0907471 0.696746 0.573605 0.0967361 
0.707784 0.629555 0.137212 0.717893 0.64847 0.206868 0.660649 0.82485 0.268704 
0.66457 0.673829 0.159057 0.624287 0.804629 0.117624 0.646872 0.878884 0.0390972 
0.691001 0.764345 0.0799432 0.708031 0.705187 0.0838644 0.680561 0.764599 0.149348 
0.636468 0.778351 0.202369 0.696891 0.716811 0.20473 0.613885 0.870783 0.265681 
0.583027 0.875113 0.181293 0.608997 0.978555 0.0372438 0.665353 0.984669 0.0752699 
0.628248 0.870706 0.105856 0.637253 0.929853 0.0880621 0.587008 0.911651 0.126356 
0.611076 0.970461 0.139097 0.631167 0.98941 0.209215 0.67504 0.851935 0.148137 
0.635196 0.925036 0.233684 0.643887 0.868586 0.206579 0.633754 0.919401 0.168974 
0.631299 1.11172 0.0300644 0.642772 1.04582 0.0445263 0.695831 1.09947 0.0358754 
0.574249 0.960409 0.0919863 0.591079 1.02554 0.095946 0.663471 1.04232 0.118753 
0.576008 1.03384 0.262251 0.608576 1.0308 0.162682 0.671543 1.03677 0.187515 
0.61309 1.09496 0.0902821 0.612561 1.14502 0.142347 0.670468 1.16787 0.0370957 
0.597144 1.16396 0.0556558 0.580117 1.08489 0.146892 0.626106 1.06482 0.220595 
0.72025 1.15539 0.0884011 0.627327 1.1379 0.221999 0.655714 1.0961 0.168685 
0.605877 1.19929 0.261922 0.663438 1.23816 0.0363217 0.745835 1.21909 0.0608323 
0.654476 1.18401 0.102835 0.656908 1.20322 0.170847 0.680025 1.19936 0.259897 
0.722775 0.0835206 0.0341591 0.755094 0.122442 0.0764533 0.718493 0.0482879 0.116366 
0.784088 0.0587838 0.124591 0.722912 0.0427905 0.262488 0.734521 0.106063 0.241536 
0.707711 0.242566 0.0350796 0.751013 0.182379 0.0391982 0.768636 0.266138 0.0304454 
0.737972 0.177957 0.110705 0.727968 0.157211 0.172954 0.7553 0.167591 0.262179 
0.774059 0.230957 0.156994 0.76977 0.244958 0.262472 0.730375 0.210887 0.212348 
0.703288 0.391317 0.0364041 0.763774 0.327759 0.032745 0.720698 0.333008 0.102831 
0.745919 0.253348 0.0937253 0.732261 0.419509 0.0925224 0.764926 0.374602 0.125906 
0.704068 0.387028 0.140755 0.747496 0.321261 0.263471 0.734871 0.283043 0.198735 
0.697261 0.419414 0.260499 0.726597 0.514657 0.0850857 0.75332 0.463717 0.0378009 
0.797538 0.487178 0.0857047 0.753857 0.469769 0.133279 0.789173 0.420694 0.169202 
0.673693 0.495126 0.266635 0.80362 0.511312 0.264189 0.774477 0.40307 0.260575 
0.739694 0.481346 0.247783 0.717409 0.549276 0.262504 0.668974 0.600947 0.0391204 
0.695377 0.666049 0.0315338 0.736065 0.535218 0.174549 0.760738 0.58327 0.120862 
0.681624 0.615265 0.267401 0.752159 0.58614 0.217131 0.746211 0.623999 0.267492 
0.674014 0.725194 0.0333875 0.747786 0.750679 0.111086 0.759206 0.693918 0.0384508 
0.728454 0.756022 0.031219 0.749522 0.657904 0.0969904 0.740236 0.69486 0.261122 
0.687381 0.819301 0.208605 0.725984 0.69444 0.145457 0.751234 0.745978 0.17783 
0.688546 0.748487 0.269539 0.702247 0.935337 0.0399801 0.716615 0.855428 0.0346116 
0.681378 0.827244 0.0849759 0.694485 0.890345 0.0961486 0.739824 0.8114 0.160406 
0.738366 0.84152 0.260091 0.735377 0.779793 0.227126 0.680507 0.887965 0.265525 
0.714696 0.878889 0.204731 0.684459 0.953325 0.268911 0.716788 1.02104 0.0398204 
0.719742 1.06987 0.0897686 0.731062 0.970475 0.099058 0.686309 0.952329 0.205672 
0.67353 0.974611 0.137016 0.695061 0.918463 0.153827 0.727373 1.01589 0.15468 
[...]
POINT_DATA 1274
FIELD FieldData 10
VELOCITY 3 1274 double
0.00096261455626 -0.0024283290959 0.00039197162679 -0.00081750880037 -0.002638896741 -0.0010398799617 0.012531387721 0.0044212045653 2.3803831101e-05 
0.00084883482642 -0.0010018025486 -0.0013162074616 0.00035584804119 -0.00063425098879 0.00018157722737 0.0024423354756 -0.0061967480757 0.0066215958812 
-0.0044993724871 0.011820272977 0.007977164073 -0.0032218595112 0.026027342101 -4.4024094988e-05 0.00022722996289 0.0013015790238 -0.0021714166149 
0.0022084291618 -0.0044405926294 0.0054033340802 0.0035049974549 -0.010616927184 -0.0051820576045 0.0047910184788 -0.010576674378 0.0010617420633 
-0.0011692853274 0.002722925344 0.00028837037512 0.00055873712107 2.1070597059e-05 0.0030974562772 0.0044160463561 -0.0095695529816 -0.017120679846 
0.0018992817412 -0.0070414837109 0.0020518469578 -0.0009480039356 0.0022704670971 0.060542228167 0.0069696934268 -0.0040854518069 -0.00085643099215 
0.0066624992897 0.0089348421551 -0.0046139415494 -0.0015266710706 -0.0054734658481 0.005104393241 0.026695368599 -0.064191144719 0.020798236954 
-0.0044104693757 -0.0073249986888 -0.0025446088614 0.014517778876 -0.036655294912 4.8874224318e-05 -0.0011188069706 0.0016177989135 -0.0034921845867 
6.3692092694e-06 -0.011095461788 -0.010756329502 0.0012141886544 -0.003038639642 0.029033711446 0.014986278022 -0.03644824292 6.841881777e-05 
0.0036005047936 -0.013134905651 0.00011543364315 -0.085224090377 -0.070570290696 0.11964379925 0.0064175080399 -0.010642325628 0.0075302388198 
0.21610914591 -0.011330349526 0.00057335102746 0.0011448911076 -0.0026575798358 0.0054633146152 -0.0036309602888 -0.02336735253 -0.03582527169 
0.54688494807 -0.12005779634 0.035008390539 0.17243795751 0.0079589743781 0.00013037211662 -0.020488512175 -0.013781511369 -0.016776581477 
0.19146028952 -0.39149983039 -0.13754773432 0.016082276909 -0.03896772332 -0.0030207488473 0.0015875838845 -0.080932417328 -0.016946729469 
0.074386743085 -0.18061103149 4.829297385e-06 0.078469951513 -0.087148399127 -0.019552986638 -0.0020492313799 -0.090668221384 -0.019034367017 
0.037780486784 -0.063708281478 -0.039558011775 0.086058252194 -0.018559639701 -0.016978239645 -0.0037888098482 -0.011764587117 -0.021766511883 
0.21325206556 -0.075048952099 0.00011745678729 0.040372052102 -0.097801585813 -0.071834261029 0.029106304693 -0.070682145745 -0.12026434989 
0.0789433187 0.033908120316 -1.069253077e-06 0.00037599908705 -0.0009598013684 0.00038769209866 0.00072888337777 -0.001015311474 0.00057389630034 
0.00072099963333 -0.0021710693722 -0.00061549212131 0.00023398783733 0.00056496714374 0.0020751542725 0.00028356145877 0.00067324218982 -0.00057336345295 
-0.00029295112834 0.00047878422208 0.0010884636415 -0.00022752433919 0.00016876968717 0.0005076428872 -0.0023301787785 -0.0013757901278 6.4614637035e-05 
0.00045111022786 -0.0011595260203 0.0007792785739 0.0010932387381 -0.0026838873563 -1.2030157007e-05 -0.00022707673974 -0.00043664715286 0.0016400005388 
0.00045813489298 -0.00041356538755 0.00039697723947 -0.00054703598664 0.0006852569366 0.0012130917085 -0.0010589472836 0.00054164884118 0.00041946536544 
0.00056401255223 -0.00075213427567 -0.00031716784466 0.0023108514867 -0.0007273785484 -5.3836554955e-05 0.00085898619456 -0.0019946245308 -0.00023786649433 
-0.0027304964682 -0.00027426970289 0.0013623927198 0.006184009732 -0.009435195343 0.0024637924403 0.00072596251463 -0.00028412259146 0.0013561363188 
-0.0063827743503 0.0043198482438 -0.00015391205689 0.00079684169555 -0.001863460863 -0.0027696456768 0.0044789809522 -0.0071758018251 0.0028569138467 
0.00043070387346 0.00088794513909 -0.0011427192761 0.0003265187407 -0.00042566796834 0.0017728819947 -0.01364762401 -0.0076483621029 0.0025034469749 
0.0053362444888 -0.00093888974654 0.0036452765873 0.00053140989934 -0.00029689016961 -0.00064581416647 0.0013581825987 -0.0015095945332 5.7437182016e-05 
-0.0085601789121 -0.0095584801829 0.0034955837172 -0.013315640356 -0.0032835230044 0.0094151072314 0.003903800859 -0.0045678655684 8.7648741398e-05 
-0.0005448682244 0.0041573276655 -3.7706168178e-05 -0.0086809765015 -0.002519014933 0.0026113224747 0.0010657512221 0.004981060328 0.0032975607816 
-0.00025718864815 -0.012834408205 0.0057496624174 0.0014077212912 0.004213856605 -0.0023518965797 -0.024458713754 -0.00041711446375 0.038733645042 
-0.027456119052 -0.0043144515334 0.029177085831 -0.0080788246596 0.0013057089574 -2.6487588125e-05 0.0067838813691 -0.0073748607746 0.012052785757 
-0.010658793075 -0.0070577653798 -0.012127101059 -0.013155408154 -0.010325975885 0.00098736563355 -0.006330657059 -0.013116618521 0.0014464337013 
0.0043270607033 0.015967596418 -1.7123883268e-05 0.16985647983 0.01046997654 -0.031994953631 0.050232727517 0.013326962944 -0.0013151777401 
0.021008411158 0.013579572215 0.0069972997625 0.06085795119 -0.031485393236 -0.041271118075 0.01714837337 0.0029712152785 -0.009804560852 
-0.018573148713 -0.012373312487 0.022747770212 -0.019150099407 -0.0086312367524 -0.00053910598212 0.00758311939 -0.036581883116 0.0018809902525 
0.037175071788 -0.05828002675 -0.014687168898 0.011769719096 -0.0089623798368 -0.00016279052821 -0.0096441937927 -0.0075059935845 -0.044222422922 
0.11570341562 0.013435133639 0.0030403403581 0.047085432415 -0.034610445461 -0.041616758465 0.080949862849 -0.020508220821 -0.046072099068 
0.036941292124 -0.021740499009 0.0006280443784 0.022115020153 0.023119158977 -0.004845439705 0.010765813659 -0.042494797359 -0.0027267019624 
0.16546675428 -0.039593394485 -0.17909066965 0.26361956145 -0.20506018595 -0.18666650997 0.058400780666 -0.0064827326324 -0.034542945727 
0.04639871845 0.02572868497 0.0013394783619 0.45647240299 -0.17045291597 -0.078022022108 0.13625717378 0.031565282797 -0.018780648254 
0.010176635179 -0.051316405042 0.0010131191787 0.092925578831 -0.038007860719 -0.039502541131 0.21269646298 -0.32273044344 -0.10798521104 
0.061361679767 -0.11323990478 -0.00049392671741 0.31974791838 -0.076067123285 -5.6681058747e-05 0.19787549858 -0.17306208549 -0.1557867192 
0.18693307251 0.0030822705227 0.015904670148 0.20203819202 -0.3868068187 0.081714651413 0.31353529604 -0.50716264591 0.037594296596 
0.18111559357 -0.057669397835 0.022696324234 0.476649557 -0.46953570119 0.13450725657 0.27719108196 -0.30383300858 -0.058605880729 
0.35077461789 -0.080480990673 -0.0020811228072 0.39792807668 -0.056387727984 0.14483786479 0.097264002076 -0.31300795609 0.23188094486 
0.39585054551 -0.30907223636 -5.5579585447e-06 0.048422947897 -0.10984508113 0.075547302724 0.39191321901 -0.50730924752 0.015736190853 
0.50708497823 -0.4625843374 0.16018176942 0.00096290222255 -0.0012541884247 0.0031185596795 -0.0019433700698 0.0043027817529 6.4013581872e-05 
-0.00078724937784 0.0010459398917 0.0028323762424 -0.0029864518603 0.0005357875624 0.0032668756113 -0.00067948651245 0.00088881898068 0.0043767339968 
0.00073731130989 -0.0021751786724 0.00045129794923 0.00035269192511 -0.00057373003804 0.0031446244349 -0.001583246134 -0.0021601539436 -0.00086521484731 
-0.0029288443228 -0.0010662583995 -0.00077064823351 -0.00080209868863 0.00065276815676 0.00022832850436 0.0006871674942 -0.0020877204087 -0.00056033797453 
0.00094082963498 -0.0028960737322 -0.0014681822343 -0.0010353536229 0.0018934570411 -0.0017431518177 -0.0031865653665 -0.00082381142922 0.00040062660608 
0.00086278825519 -0.00027147165148 0.00021117620411 -0.0010573955598 0.0069046620623 -0.0030848364947 -0.00031666621043 -0.0005564093831 -0.00014314103342 
-0.00021316508549 -0.0011194684583 0.002688011305 -0.0012607347429 0.00070729913517 0.0016467454031 -3.8467338001e-05 0.0012849664977 0.00016870837207 
0.0016734446671 -0.0017255742363 0.00022787276058 -0.0072756994865 -0.0050540245147 -0.00053553243629 0.00081798829816 -0.0014455985695 -0.0010690609972 
-0.004169295013 -0.009913184125 0.0012015277641 0.0028494653567 -0.0031301249668 0.0024734835354 -0.00350711034 -0.0056395274359 -0.00040895672665 
0.0015320818146 -0.0018019780947 0.0020320150239 0.0019534399148 -0.00039113783883 0.00076130986654 -0.0049878671145 -0.005296302406 0.00010255880616 
0.0046316365801 -0.0014713925083 0.0054813363339 0.00029685008387 -0.00077303941694 -0.001279390923 -0.012298442023 -0.0032862158006 0.0004052821638 
0.010364848054 -0.0083927203073 -0.034934517995 -0.017786374993 0.0062616932005 0.015963104441 -0.010059977157 0.010884197064 0.00084007401383 
0.012909851576 -0.0073258517608 -0.00035984044756 -0.012079038721 0.012451138577 0.0032373962634 -0.0049745622189 -0.0051513421498 0.0024639121032 
-0.0089884318139 -0.010685667925 0.0068828641786 -0.0074316702241 0.0012833608003 -0.020024814738 0.0035234031101 -0.023807912037 -0.0046795393665 
0.031624412563 -0.043147488587 -0.00036087300768 0.03157694385 -0.043511726572 0.00021827077517 -0.0075372466979 0.010722901128 0.00068542762872 
0.014945749643 -0.0038594776247 5.672548318e-07 -0.0085632194761 -0.012717626166 -0.012045720872 0.012724999189 -0.016227934535 -0.050249778339 
0.002848356503 -0.032381935653 0.031249532681 -0.0028613529437 -0.03992207765 -0.0523298714 0.018501816685 -0.040480208454 0.0099635723429 
0.024407372012 -0.033524986259 0.0041090621746 0.025936285253 0.0053701144294 -0.010934334277 0.014308768728 -0.038066752873 -0.0030850469913 
0.0024102043916 -0.0078346690483 -0.0062722547996 -0.047429008191 -0.029350059877 -7.680946543e-05 0.20010476443 0.083440558305 -8.1846789644e-06 
0.0061751086197 -0.040086938952 -0.0011384773178 0.13063347891 -0.12303922817 -0.26036032524 0.10801996909 0.028310918767 0.0093037642876 
0.12405979358 -0.034375461899 -0.17699907819 -0.015660726667 -0.0051105450284 -0.049354332389 0.12066530785 -0.061885245657 -0.004398525223 
0.24164705233 0.08121210905 0.025774658168 0.19247712755 -0.008869311719 -0.0044157854407 0.11557922626 -0.020014151416 0.047248277557 
0.069082101084 -0.20789896862 -0.10389929329 0.089477726715 -0.1558680808 -0.0007828833361 0.4590517874 -0.08558666764 0.085831759735 
0.59060838717 -0.72279205111 0.23600614939 0.19957529454 -0.39319074058 0.039575502837 -0.10254458774 0.018096652656 -0.032459796006 
0.18868141576 -0.050571725298 -0.033353988573 0.47631508434 -0.039563659114 -2.4880267781e-05 0.25103249403 -0.33758607795 0.010013280309 
0.20241432512 -0.36845981275 0.083432055965 0.54415890317 -0.21605013096 0.15764415962 0.20057266895 -0.35951405674 0.33546998231 
0.63035925854 -0.063622576014 0.23889760737 -0.00017469830376 0.00078516483949 0.0008572781276 0.0047571827387 -0.011436891875 0.02047914026 
0.00028681154349 -8.3889120029e-06 0.0018456318559 0.0011223843033 -0.0029719548297 -0.00010101352876 -0.0003149142429 0.00078469763993 -0.006165951385 
-0.00069363496756 -0.00053832239568 -0.00038113910399 -4.6288876063e-05 -0.0024394032142 -0.00016141404099 0.0060447493177 -0.0074274551841 -0.005756557975 
-0.00046014141589 0.00010827656969 -0.00044463517044 -0.0015355659475 -0.00079538663017 -0.00019708608743 -0.0013700116748 -0.0015489814204 -0.00028085522428 
0.00097206056115 0.0010736181366 0.00068384297525 0.00080541326842 -0.0021319148103 -0.0020249069683 -0.0036450437801 -0.00010076686494 0.00091931119304 
-0.0044429223759 -0.00017057321634 -0.00042418084482 -0.0038572789108 -0.0023269953194 -0.00086971412188 -0.0010976232819 -0.0010555517955 -0.0012909501806 
0.0017213494084 -0.00089747886576 0.0005585820619 0.0041623144698 -0.0030720624736 0.00039792060141 0.00029026578128 0.001624278384 -9.4571162526e-05 
-0.0016387200188 -0.00040237741063 0.001879348768 0.0019127392424 -0.0030671542499 0.00015592533023 -0.0035359618981 -0.00090903168049 0.00034134212059 
0.00036841279462 0.0024372225594 0.00032940156195 -0.0011980550957 0.0027540594025 0.0018112365235 0.00031157480506 -0.0017050852457 0.0023027307869 
-0.0011696346957 0.0010537894273 0.00035063952289 -0.31005512809 -0.20531415503 -5.0701052858e-05 0.0011150569303 0.00057247448659 0.0017340063061 
0.044722227508 -0.034818713044 0.010691115178 -4.7065410285e-05 -0.0011098325108 0.0025600672849 0.00024956304226 -0.0017256401889 -0.00042873952078 
0.00028946908477 -0.00033368371676 -0.0016775747025 0.0002062875471 -0.0022357844386 0.00054504278825 -0.0011681050649 0.0026848568025 0.0055585452351 
0.00084396417231 -0.0011880107703 0.006249590297 -0.0063983071554 0.0042862835082 -0.0064400472179 -0.0057690631871 0.010689394362 0.00054476312485 
-0.0005886426181 0.00026637932102 0.00043131232316 0.0027125900947 -0.01336117286 -0.0027532505884 -0.0071939841157 -0.00046260457695 0.00074636255339 
-0.0067969006622 0.003321525843 -0.0012756083057 -0.0041931292786 0.0039925375608 0.0026496391978 -0.0057761776928 0.006616029466 0.00087378637401 
1.749283467e-05 -0.0061931792222 0.0098811117739 -0.0045845917934 0.0019309728868 -0.0014964194502 -0.01266338291 0.0033553784892 -0.0018628031611 
-0.020484265749 -0.013448266125 0.0087332984433 0.038612199637 -0.079264569611 -0.00035783139595 0.024144685751 0.0044477295083 0.008743534323 
-0.00098709444441 -0.011891326375 0.0033521276036 0.15676798406 -0.025752136586 0.037542874693 -0.013063839938 -0.023325635962 0.0034269486833 
-0.0040675642752 -0.018599946314 -0.010235196546 0.05824100776 -0.088728216515 -0.0042763435319 0.0036613633706 -0.0110807209 -0.0021241632543 
0.0096785226038 -0.0040559773871 -0.0054090255798 -0.010470297001 -0.0040800351423 -0.012432147814 -0.0050091320216 -0.024389732431 -0.0052032607178 
0.070503999136 -0.038407757601 -0.00021549016328 0.0047461930835 -0.0582304898 -0.037158344628 0.055784198574 -0.11682962637 0.0020714542981 
0.0013620323994 -0.028801839144 -0.0073299514111 0.033287270378 -0.036462038 0.00078519930388 0.041706962358 0.03404532496 -0.043726653957 
0.019903776815 -0.051675206915 -0.014639160549 0.10110710114 -0.07708261118 -0.012845652417 -0.08674617189 -0.2113417695 -0.049223435073 
0.092691281018 -0.043586223049 0.0037270601033 0.12676764656 -0.099950662343 -0.072399250797 0.16456062041 -0.074942615212 0.0039336434114 
0.10120258287 -0.039876163362 0.04436076231 0.12681092603 -0.055234749746 0.020222053594 -0.1364728202 -0.23715977689 -0.096903686188 
0.40418081225 -0.45229812307 -0.25339712074 0.2207270633 -0.15648639132 0.085591084809 0.0099919419065 -0.17280210025 -0.014138513269 
-0.07767002561 -0.2364649349 0.048449689469 0.56186228958 -0.034694512267 0.051703514631 0.28255271791 -0.12097277865 0.10572361281 
0.35017880234 -0.21362339926 0.084326265541 0.23156817501 0.055954138318 0.013214085429 -0.079717178942 -0.28954234942 -0.029255648976 
6.117664238e-05 0.00046456580845 0.00037902192358 -0.0077024410338 -0.0076232815931 -0.0017048144616 -0.00072739202043 0.0013382390936 0.00069256989238 
-0.0016919064183 -0.00074893382064 0.00080740361763 0.0010067309404 -0.0022568932787 -0.00072222207918 0.0011827870566 -0.0015368625361 -0.00074384599779 
0.0014093566477 -0.0017756186583 -0.00096366314299 -0.0054264878772 -0.0062892572866 0.00017971347141 -0.0011437429073 0.0013707368817 -0.00096357866456 
-0.0077929440537 -0.0010313618441 8.5421238799e-05 0.0030171642509 -0.00061981787393 0.0027376475933 -0.00072172960493 -0.0015530854495 0.0062857366554 
0.004803780732 0.0026245116848 -0.001770853832 -0.0018104603242 -0.0028513930232 -0.001365627962 -0.0015989703852 0.0018926957992 0.00014998911071 
-0.0024058964824 -0.0017107641097 0.0018277678679 0.00090432485173 0.001452696877 -0.0016156286449 -0.0023610252275 0.0017523738968 0.00040117868622 
0.0062491573228 0.009851915818 -0.018727241159 -0.010894969675 -0.00061668178915 0.005238531246 -0.010085045332 -0.0010896310877 0.0040860969303 
-0.0081815715102 0.0056130797335 0.001812580163 0.00055116249642 -0.0010270820147 -2.4676734481e-05 -0.0040905609639 0.0022399928506 -0.0011207624755 
-0.0018651995854 0.0048133044411 -7.6313177068e-06 -0.0044811169132 0.0020084332942 0.00081867521527 -0.0037813017529 0.003085832375 0.00017960918204 
0.0011655151934 -0.0099318745288 0.0045756757356 -0.00087866124215 -1.7921962726e-05 -0.002387460667 -0.0015102084799 -0.00069669397992 -0.0012004258312 
-0.00045647266273 9.1996042246e-05 0.00028370428811 0.0013980507605 0.0037763309649 -0.00023041160674 -0.0038847721236 -0.0031830149973 0.00050013593792 
-1.1760443516e-06 0.0042381138882 -0.001828724271 -0.022320357976 0.012448936197 -0.070648078539 0.002397834916 -0.0021748972316 -8.8162550702e-06 
-0.00876135873 0.0017809888172 -5.3305374212e-05 0.00071662831028 -0.0017291010019 0.0013726620637 0.0013738435556 0.0011159886135 0.0030975706839 
-0.0016491469529 0.0043111372418 -0.00010067528354 -5.4209889809e-05 -0.006121019467 0.0066308011074 -0.012456284014 -0.00063701358996 0.00048686714313 
-0.0071300726669 0.0021973872825 0.00083381004777 -0.016510252311 -0.0025054848181 -0.012388108578 -0.0069823390321 -0.0014929227167 -0.0012021525237 
-0.0049141948135 -0.0010205787858 0.0007474871407 -0.0050198675127 0.0010417787116 0.0010828044094 -0.00745307648 -0.0012501165172 -8.2189690659e-05 
-0.0041063125342 0.00070299234426 0.0030384781585 -0.0016476281456 0.00092577967548 0.0011172615933 -0.016203309616 0.017245812465 -0.011907809287 
-0.010667000281 0.004528270012 0.00014286002644 5.9223667218e-05 -0.0063966074005 -0.0003389947096 -0.0052599014381 0.0054194612683 -0.0010816477049 
-0.0042514767068 -0.003373092939 -0.0063992604681 -0.0053394149434 -0.0041547854003 0.00076229053434 -0.011148810323 0.015992992404 -0.012172626222 
0.0082795733443 -0.0025193724456 -0.0012741407531 -0.018374986986 -0.012270249971 0.012553306028 -0.0059634307151 -0.018856370039 0.00065784969275 
-0.01041128412 0.0036284825687 0.010294611731 0.044698331458 -0.021596780018 0.00062047347786 0.037599275469 0.031253996583 0.00055823819204 
0.15115173105 0.00059040733413 0.026567847496 0.011551251056 -0.027861539868 0.0082715283156 0.057495170103 -0.088891448942 0.0021702807878 
-0.01703653957 0.040628200751 0.020131159601 -0.020129164812 0.017021276464 -0.082831088331 0.017605816378 -0.02639639053 0.0089730556448 
0.017965281348 -0.085317789726 -0.0016555580304 -0.043500553641 0.0034553615134 -9.3590303466e-05 0.022091705196 0.049475810438 0.0044030660038 
0.071721509071 0.033085238247 -0.036572714686 0.30868498463 -0.015914168622 0.014628105936 0.58059685013 -0.058218066509 0.11580235392 
0.15086366363 -0.071642416585 0.02195978805 0.090940200959 -0.073744621852 0.048670802234 0.026562200582 -0.071458410674 -0.015265514556 
-0.018117557803 -0.056142631023 -0.0022344413996 -0.023567830539 -0.042010226104 -0.00031992054693 0.34104222325 0.0085418914231 -0.10267595538 
0.08662618963 -0.039100703146 -0.033046477966 -0.12186876455 -0.39699824665 -0.04567745406 -0.0009273049146 -0.15516946462 0.034396945738 
0.24080963446 -0.15985156305 0.18466271689 0.63620935971 -0.065747604241 0.051829422091 0.16650846171 0.019444930331 0.063764083505 
0.4078063104 0.017381439526 -0.13518353149 0.19182469176 -0.010142369071 0.0085933729808 0.56857269443 -0.17870505666 0.20015334742 
-0.0021069032676 -0.0003986832334 -4.674011119e-05 -0.0075287613396 0.0047247498112 -0.0041126926638 -0.0021671558459 -0.0013340869133 7.392605318e-05 
-0.00049355350844 1.8065000029e-05 3.196902843e-05 0.001618787603 -7.0839708086e-05 0.00039752942645 -0.00055352176787 0.0011740718575 -0.0027502466357 
0.0018320247015 0.0022474509809 -0.001497257611 -0.0011806827469 -0.0010642868526 -0.00044429821258 -0.0067948027184 -0.0033879761897 -0.0031252051586 
-0.0024554315509 -0.002124659364 0.00083292960061 0.0010283430046 0.00079678621997 -0.0012038062855 0.00082292989295 -0.00018116741601 0.00059263908367 
-0.0023873802014 0.0011310877438 -0.0011935990559 -0.0017121970505 0.00034556073307 -0.00069287416765 -0.0021074384584 -0.0014336924189 -0.00085177179737 
0.005512385451 -0.0020670364899 0.002464744544 -0.0087186458219 0.0076023843863 -5.4610677684e-06 -0.0021670960616 -0.0015722834729 -4.0689532749e-05 
-0.0074506738798 -0.00052464284113 0.0066140510945 -0.0025974601394 -7.302042552e-05 -0.00034001084139 -0.00021239863488 -0.0023496332174 0.0030381502874 