# vtk DataFile Version 4.1
vtk output
ASCII
DATASET UNSTRUCTURED_GRID
POINTS 1274 float
0.513665 0.552207 0.0379538 0.469908 0.650239 0.105121 0.488736 0.595912 0.268458 
0.495139 0.586638 0.0982926 0.4241 0.754916 0.0323158 0.424694 0.767869 0.120058 
0.475858 0.636716 0.212876 0.459514 0.669097 0.268648 0.394517 0.843675 0.0586831 
0.398707 0.812023 0.165345 0.446571 0.697726 0.214403 0.433363 0.737467 0.265756 
0.363443 0.901319 0.0319696 0.344363 0.966727 0.0526448 0.381662 0.877594 0.146368 
0.395319 0.843151 0.23173 0.345858 0.956309 0.260026 0.314688 1.03745 0.0387204 
0.391463 0.912473 0.0864123 0.448733 0.898221 0.110099 0.332798 0.994827 0.130164 
0.409054 0.914014 0.218456 0.310646 1.03717 0.265121 0.352336 0.928696 0.187594 
0.282257 1.10028 0.0484824 0.328398 0.986789 0.200922 0.286831 1.10768 0.260298 
0.258441 1.16077 0.0336643 0.357748 1.11436 0.102971 0.302259 1.06799 0.109078 
0.289879 1.24982 0.0382187 0.303249 1.04445 0.20026 0.283978 1.09949 0.172119 
0.333722 1.25406 0.0921975 0.386082 1.15627 0.0380465 0.275985 1.14741 0.110144 
0.422113 1.14865 0.106042 0.261117 1.14951 0.208246 0.340198 1.10586 0.211159 
0.218865 1.2557 0.0332147 0.320816 1.18422 0.0539226 0.319888 1.1558 0.173614 
0.245128 1.19809 0.164336 0.287348 1.18241 0.26484 0.239508 1.22107 0.0932609 
0.373015 1.22978 0.0356631 0.23672 1.22981 0.236229 0.216126 1.25568 0.149166 
0.540443 0.470836 0.0302089 0.611507 0.295711 0.0937653 0.595691 0.358352 0.122632 
0.597174 0.346985 0.198808 0.576468 0.38797 0.2665 0.610999 0.312202 0.262194 
0.541205 0.468775 0.209685 0.509267 0.556495 0.218232 0.603578 0.328451 0.0358989 
0.566518 0.417883 0.159137 0.484082 0.623858 0.0378758 0.607776 0.473422 0.0456956 
0.546161 0.474551 0.0985138 0.549913 0.447311 0.268472 0.565233 0.570694 0.262773 
0.527733 0.511688 0.15977 0.551325 0.667824 0.0308607 0.445645 0.710853 0.0790999 
0.517681 0.697155 0.1069 0.47209 0.752382 0.178386 0.551775 0.54762 0.102328 
0.523009 0.65703 0.266704 0.446485 0.696606 0.145247 0.415431 0.776402 0.214622 
0.501024 0.679803 0.16926 0.555263 0.576545 0.168075 0.494428 0.778908 0.0923062 
0.536015 0.75948 0.146418 0.459631 0.813555 0.0363729 0.508537 0.723278 0.0397541 
0.484747 0.816824 0.150786 0.437522 0.83501 0.112846 0.365052 0.892944 0.269731 
0.499737 0.768517 0.260788 0.53888 0.61641 0.219018 0.563644 0.746726 0.220156 
0.468245 0.814643 0.213655 0.507486 0.704328 0.225972 0.460013 0.888265 0.0399388 
0.520341 0.852276 0.03558 0.536222 0.78976 0.0326235 0.454125 0.874618 0.177596 
0.496042 0.848671 0.0949139 0.4639 0.869087 0.260663 0.4388 0.8024 0.269008 
0.417789 0.951151 0.0373627 0.373725 1.08825 0.0325887 0.466302 1.00342 0.0331274 
0.401266 0.995524 0.095405 0.416672 0.946945 0.151253 0.469341 0.963651 0.0916754 
0.485403 0.939611 0.263434 0.419809 0.971513 0.261479 0.535411 0.981637 0.2689 
0.461415 0.94951 0.203552 0.384279 1.02265 0.0323966 0.365789 1.05298 0.084694 
0.462939 1.03141 0.0900263 0.363038 1.06195 0.158275 0.395896 1.0037 0.196772 
0.441944 1.05016 0.264238 0.377387 1.02817 0.267487 0.483265 1.00197 0.237021 
0.458188 1.13454 0.0385421 0.470565 1.08218 0.123012 0.427774 1.0409 0.139488 
0.360679 1.08926 0.269156 0.527322 1.1773 0.175915 0.490188 1.10089 0.267884 
0.407673 1.08727 0.21351 0.43022 1.13252 0.264219 0.445577 1.11905 0.16709 
0.358619 1.15938 0.260112 0.511472 1.18625 0.0381483 0.499023 1.14573 0.120482 
0.438086 1.20441 0.034193 0.370054 1.2002 0.101228 0.381422 1.13233 0.165485 
0.338858 1.23579 0.260952 0.45333 1.16632 0.207967 0.40315 1.2056 0.222649 
0.469595 1.18995 0.26612 0.487877 1.25422 0.0362705 0.312989 1.21143 0.137285 
0.461103 1.24805 0.225596 0.300424 1.21187 0.203879 0.475276 1.21036 0.170009 
0.373726 1.22602 0.164255 0.639305 0.232203 0.180258 0.56376 0.41368 0.0317379 
0.660141 0.192684 0.057662 0.66013 0.287894 0.213265 0.640294 0.240824 0.263508 
0.668789 0.174823 0.207417 0.642348 0.224358 0.115899 0.630783 0.403794 0.0363496 
0.591715 0.42185 0.0892777 0.527371 0.50895 0.265843 0.606381 0.485416 0.263219 
0.617251 0.29142 0.158567 0.639982 0.376916 0.246816 0.614411 0.459218 0.135575 
0.588854 0.54561 0.0375218 0.660864 0.421894 0.100901 0.534764 0.635005 0.131153 
0.605775 0.527536 0.14711 0.576757 0.523059 0.212082 0.593137 0.432378 0.220389 
0.61322 0.622819 0.266298 0.603759 0.716311 0.0390329 0.555428 0.608773 0.064326 
0.570416 0.73214 0.0992408 0.566839 0.696284 0.158341 0.600351 0.708473 0.268226 
0.592705 0.633081 0.175542 0.645791 0.637689 0.211699 0.571684 0.670907 0.224592 
0.597777 0.756823 0.159912 0.587391 0.665794 0.0954112 0.639439 0.78575 0.0390321 
0.562244 0.794101 0.0910108 0.540706 0.812684 0.190012 0.545746 0.83073 0.261831 
0.61663 0.772918 0.265258 0.515311 0.871661 0.21168 0.625785 0.707034 0.201801 
0.600628 0.819171 0.221307 0.585378 0.835788 0.0347551 0.561223 0.857536 0.0930994 
0.565848 0.907467 0.0397017 0.504057 0.941987 0.0315438 0.552337 0.90817 0.260437 
0.598859 0.96551 0.265548 0.5287 0.861454 0.146356 0.506487 0.92093 0.170695 
0.536306 1.00093 0.051795 0.523326 0.913883 0.104483 0.473085 1.05745 0.190975 
0.469581 0.994264 0.155478 0.538108 0.98745 0.137305 0.518605 1.04475 0.269178 
0.570545 0.943384 0.192212 0.436745 1.06453 0.0347798 0.538743 1.12273 0.0335702 
0.573448 1.06251 0.0351738 0.504322 1.06202 0.0328709 0.552301 1.10603 0.095477 
0.522534 1.04867 0.104031 0.542366 1.00708 0.209001 0.503266 1.12379 0.204934 
0.539318 1.23231 0.0892618 0.574924 1.20998 0.032288 0.564465 1.17486 0.122881 
0.522766 1.08829 0.153339 0.605237 1.08551 0.268672 0.540779 1.23597 0.159338 
0.534227 1.21053 0.237642 0.567498 1.1276 0.179352 0.557097 1.07147 0.214923 
0.553877 1.13492 0.259468 0.640581 1.20512 0.042382 0.622809 1.20738 0.109784 
0.465625 1.213 0.100987 0.648128 1.23381 0.221449 0.596122 1.19652 0.186231 
0.7732 1.165 0.205729 0.678933 0.131007 0.0398244 0.693267 0.119608 0.115003 
0.721562 0.0322025 0.193168 0.682128 0.133985 0.265509 0.697605 0.0950829 0.183953 
0.636812 0.261675 0.0387314 0.696843 0.315028 0.0396603 0.70171 0.225563 0.151111 
0.704837 0.265322 0.267352 0.640144 0.404754 0.173401 0.695574 0.19964 0.267448 
0.679346 0.326169 0.266701 0.663597 0.336229 0.138193 0.677978 0.456857 0.0404637 
0.655659 0.493122 0.0967137 0.65082 0.353805 0.0774726 0.685081 0.465899 0.157065 
0.65088 0.459 0.216874 0.682387 0.278584 0.104614 0.730158 0.411658 0.19838 
0.691341 0.353656 0.201647 0.612239 0.642699 0.0351633 0.659794 0.523907 0.0349313 
0.635898 0.557785 0.0895594 0.595831 0.600085 0.119701 0.648497 0.60458 0.156768 
0.664361 0.681705 0.262129 0.639868 0.543966 0.269081 0.687756 0.580412 0.20745 
0.617678 0.57706 0.209661 0.674578 0.544741 0.150262 0.678758 0.51418 0.206506 
0.630303 0.713103 0.12282 0.658371 0.651467 0.0930149 0.697999 0.571354 0.097686 
0.709393 0.624982 0.140721 0.716995 0.645744 0.206608 0.662462 0.820359 0.268701 
0.665886 0.669891 0.160646 0.624564 0.800959 0.117324 0.648355 0.874131 0.0391022 
0.689783 0.759142 0.0794445 0.707565 0.699775 0.0854304 0.681244 0.761372 0.149046 
0.637993 0.773219 0.203177 0.697263 0.714417 0.205212 0.614532 0.865083 0.265677 
0.582116 0.870275 0.183519 0.615158 0.966496 0.037251 0.668556 0.982579 0.0766135 
0.632108 0.866913 0.1066 0.644707 0.925171 0.0880682 0.587457 0.905385 0.124609 
0.610174 0.96497 0.138837 0.635626 0.982215 0.209832 0.679144 0.846565 0.147876 
0.635562 0.919879 0.233774 0.643701 0.861205 0.206128 0.632236 0.913905 0.169158 
0.631388 1.10618 0.0300626 0.642363 1.03705 0.0386837 0.694908 1.08944 0.0358769 
0.575176 0.954438 0.0904566 0.59594 1.01835 0.0954549 0.668003 1.04071 0.115186 
0.57868 1.02862 0.260298 0.614252 1.02279 0.162028 0.672772 1.02863 0.183418 
0.616517 1.08753 0.0906367 0.623125 1.14097 0.138214 0.697506 1.16234 0.0370852 
0.595592 1.15178 0.0645493 0.581982 1.07454 0.145698 0.624282 1.05392 0.217051 
0.74221 1.12956 0.0836387 0.636995 1.13075 0.223717 0.6614 1.08988 0.167778 
0.603655 1.19342 0.26361 0.750175 1.20929 0.033559 0.79256 1.17859 0.10209 
0.690888 1.1677 0.106118 0.673818 1.19592 0.168666 0.677354 1.18529 0.261574 
0.721461 0.0827566 0.0341655 0.753246 0.120646 0.0773645 0.718091 0.0492611 0.120671 
0.784118 0.0576802 0.127721 0.723612 0.0410874 0.262255 0.73593 0.105118 0.244215 
0.707626 0.24122 0.0350561 0.749467 0.180027 0.0391967 0.768054 0.266072 0.0304515 
0.735636 0.17881 0.110677 0.726981 0.156024 0.17242 0.755953 0.166153 0.263424 
0.774268 0.229522 0.154569 0.770066 0.24132 0.263001 0.732118 0.208814 0.212737 
0.703863 0.390701 0.0363953 0.766261 0.327907 0.0314021 0.721717 0.33309 0.1033 
0.74741 0.250588 0.0926504 0.734485 0.417086 0.0925175 0.765349 0.372854 0.128424 
0.704667 0.387675 0.141719 0.748778 0.318574 0.262907 0.732918 0.280713 0.197318 
0.697018 0.421042 0.260496 0.724635 0.510367 0.089136 0.750256 0.462887 0.0378084 
0.79551 0.481699 0.0868203 0.755191 0.467627 0.137322 0.791474 0.418055 0.171567 
0.676226 0.491003 0.266653 0.804799 0.511637 0.264175 0.772524 0.398047 0.260581 
0.742093 0.48052 0.245378 0.717862 0.5469 0.263653 0.670691 0.597032 0.0391143 
0.693132 0.66359 0.0315322 0.738421 0.530757 0.176761 0.761966 0.578881 0.122628 
0.67859 0.611785 0.2674 0.753502 0.58434 0.216343 0.743158 0.620142 0.267491 
0.673398 0.723315 0.0313706 0.747153 0.74597 0.111425 0.757617 0.689897 0.0384581 
0.728317 0.753359 0.0312099 0.747171 0.653699 0.0969666 0.740543 0.6912 0.261132 
0.689251 0.813837 0.208719 0.72757 0.689914 0.147401 0.751996 0.743463 0.178967 
0.682076 0.747284 0.269539 0.70228 0.931976 0.0399807 0.718046 0.850521 0.0346075 
0.681937 0.822267 0.0843067 0.694634 0.885529 0.094967 0.740602 0.808273 0.159075 
0.739072 0.83504 0.260085 0.727394 0.765449 0.233611 0.681333 0.883286 0.265521 
0.712328 0.875311 0.208274 0.688037 0.948425 0.268914 0.718051 1.01743 0.0398217 
0.726344 1.06634 0.0890847 0.728823 0.949115 0.107492 0.689642 0.943556 0.205852 
0.672124 0.97414 0.139037 0.6923 0.916038 0.149756 0.731558 1.00646 0.154695 
[...]
POINT_DATA 1274
FIELD FieldData 10
VELOCITY 3 1274 double
0.00044347824969 -0.0011572952057 4.8871744047e-05 0.00019687496512 -0.00054270081637 -1.7327641873e-07 0.00061634308841 -0.001494009599 -4.3053440185e-06 
0.00072463279404 -0.00011348749696 -0.0019230788964 0.00058644888398 -0.00093385722628 -7.701297822e-05 0.00034612917073 -0.00059466608656 0.00042194705727 
6.8994935877e-05 -0.00030235189174 -0.00045996440092 -0.00020820887689 -0.00094950258506 -2.9623000264e-05 0.00037815283456 -0.00081396409323 -8.2983392607e-05 
9.2250127439e-05 -0.00065183676202 0.00037425559395 0.00036207689934 -0.00052278016037 0.00073338176574 0.00040492526044 -0.00109710403 -2.7838224633e-05 
0.0002168456288 -0.00085564882023 8.7384708514e-06 0.00046435607024 -0.00097882623925 0.00042968033342 0.00029360759685 -0.00071749012258 -0.00012052232038 
0.00036140006963 -0.00067459779894 -1.5797566175e-05 0.00028282140526 -0.00065165720431 0.00019604825369 0.00041045131162 -0.0010223673416 1.5930437532e-05 
0.00065522823414 -0.00099213603898 -0.00014922589061 0.00067443597594 -0.00066867261038 0.00016988481139 0.00037203604032 -0.00094843433747 0.00033580772631 
1.2852277504e-06 -0.00071947529431 0.00013984143707 0.00024042767648 -0.00057333805244 -0.0001661855878 0.00026305015715 -0.00056531115558 -0.00023209579253 
0.0003956149892 -0.0009769130668 -0.00034738770258 0.000251556434 -0.00069128811783 0.00018871406099 0.00026739956657 -0.00058628969223 2.8017285963e-05 
0.00054180330249 -0.0013813302329 3.2073071986e-05 0.00040432475056 -0.00092244781713 -0.00082081988808 0.00028678013461 -0.00073566219382 0.00016811294894 
0.00011943374854 -0.0017508593337 3.3677434712e-06 0.00032072350159 -0.00067124916926 6.6967078205e-06 0.00031087997701 -0.0007704815771 -0.00014275569618 
0.00044828406693 -0.0011024570112 -0.00031660712285 0.00099951753905 -0.0011403513702 0.00040846977007 0.00027771802547 -0.00070833081523 -6.1735676523e-05 
0.00038351408996 -0.00087193884683 -0.00027629840828 0.00028779493607 -0.00072596604163 -0.00014099064474 0.00014354712137 -0.00077867258462 -0.00013295955087 
0.00024225405808 -0.00057515614935 1.9111677819e-05 0.00071865125044 -0.0015245849322 -0.00034612327581 0.00024712689633 -0.00071411607001 -8.7695994549e-06 
0.00028440383502 -0.00066425391219 -7.7986506844e-05 -6.7144483193e-05 -0.00058324877402 3.2601604303e-06 0.00030342893405 -0.00071860414793 -0.00012790168745 
0.000555863809 -0.0012498121548 1.2176679909e-05 0.00019866733574 -0.00047596019119 -0.00024021584322 0.00028340585601 -0.00068704341927 -0.00015170640345 
-7.7256170323e-05 0.00047472155036 6.8891646102e-06 -0.0014979166833 -0.00012440722934 -0.00081920515836 0.00016264002003 -0.00034306861845 0.00085217023102 
0.00029537763751 -0.00080143771025 0.00066950205797 0.00053616031728 -0.0025562934675 -0.00080360015375 0.00086310523937 -0.0022030373325 -0.00038418157317 
0.00048648064473 -0.00096049306743 -0.00077121204134 0.00048298964117 -0.0012159692858 -0.00053294537927 0.00015133925159 -0.00033259389165 -5.8302030643e-06 
2.466217813e-05 0.00049680004218 -0.00080079451134 -0.00013791756747 -2.7900231316e-05 8.0499933122e-07 -0.00083830931707 -0.0011161371365 -0.0008117305139 
8.8903737633e-05 -0.00036424590802 -3.4762133393e-05 0.00036646040099 -0.00072222785632 -1.3526913441e-05 -0.0002843333429 -0.00071570028963 -6.5623483366e-05 
4.2575378393e-05 -0.00051471302684 0.00014564706646 0.00091699454204 -0.00015266635192 -0.00045975933286 6.3555026003e-05 -5.9275724583e-05 0.00033857789235 
8.2497151351e-05 -0.00051725137787 0.00080776726861 -8.0347165417e-05 -0.00075314535725 -0.00025513658043 -1.4138660714e-05 -0.00025475493733 0.0010798701254 
-0.00011054989364 -0.0011146616709 0.00020286752734 0.00013256859343 -0.0002506111339 -0.00047163804043 0.00031484595713 -0.00052983383033 0.00039025338832 
-2.313113454e-05 -0.0002251915485 -0.00032282249907 0.00088078063228 -0.00065450999093 0.00017358783167 0.00020680382994 -0.00051161749428 -8.8628415758e-05 
0.00037493631093 -0.0016911138918 0.00066118734548 0.00028643062599 -0.00080304690331 0.00012219770916 9.6799714052e-05 -0.0011299194566 0.00026410749566 
0.00037502764636 -0.00086765032611 0.00013362263799 -3.0265593403e-05 -0.00049330194837 0.00025435484441 0.00022120868121 -0.00072621282474 1.797941958e-05 
0.000139532599 -0.00054503381902 -0.00025583556536 1.5725619694e-05 -0.0011745449549 0.00051769623108 0.00031261799188 -0.001171467019 0.00019594485953 
0.00037674579252 -0.00081119959091 0.00028290370832 0.00052413216776 -0.0015699002951 -0.0010936599527 -7.0230242898e-05 -0.00078856527621 -0.00025986738761 
-0.0001771364015 -0.001000928132 9.6642389557e-05 3.1390024386e-05 -0.0007076235274 -0.00047303511393 -6.3814333308e-05 -0.00085752125955 1.1686312411e-05 
0.00031705782502 -0.00083364284085 -0.00014289915138 -0.00066562647701 -0.0005645985643 -3.9157389103e-05 6.0800189577e-05 -0.00097371454576 7.3342441342e-05 
0.0003486639727 -0.00056434935259 5.2906688757e-05 0.00017423240011 -0.00097274244684 1.0259788927e-05 0.00047832227463 -0.00082463800143 -1.2607550737e-05 
0.00058737791724 -0.00078697123626 0.00027049118065 0.00059795206667 -0.00088281111355 0.00023478824762 0.00061010957804 -0.00060304119306 4.9056756578e-05 
0.00022041188265 -0.0009125476412 0.00073077782682 0.00039210473185 -0.00061981133405 -0.00010294750053 0.00020833918944 -0.00089769095023 -5.3154261976e-06 
0.00059794290674 -0.0020459807005 0.00030991483933 0.00032940871761 -0.0010767339895 -2.4710681627e-05 0.00022546799761 -0.001096658269 -2.2158734944e-05 
-0.00040924004166 -0.00078082862845 -3.1278196773e-05 0.00030517526172 -0.00075096388762 -0.00021358418811 0.0002561838325 -0.0007036726491 1.6491248696e-05 
0.00028168961675 -0.00049506107707 -7.1352659089e-06 0.00015098241702 -0.0008252665748 0.00027008345817 -7.1255757944e-05 -0.0010392014652 0.00033097611909 
0.00093232148031 -0.0011346357839 -0.00010609034604 -3.7460732928e-05 -0.00064235289561 -0.00033311673707 0.00035629907599 -0.00091989936597 0.00057087239917 
-6.3358811009e-05 -0.00084171174617 -1.013086925e-05 0.00060515485117 -0.001020404153 0.00017722752734 0.00017884799332 -0.00089120420397 3.3528133628e-05 
-0.00014165008008 -0.00078447306288 0.00017208686962 0.00025542496251 -0.00071926206203 -3.9881358145e-06 0.00017208658237 -0.0010263642331 0.00015035796639 
-0.00013263336335 -0.00082317557518 -3.8477877734e-05 0.00055088463886 -0.00071715589247 -9.4957807965e-06 0.00032492492346 -0.00081759453736 0.00018078782571 
0.00072274758999 -0.00086129529833 -6.9106397408e-06 -0.00010135207978 -0.0013352016642 0.00052922010927 0.00022693099487 -0.000735022219 -0.00035325706289 
0.00024317517841 -0.00074086803011 2.032011303e-07 5.04492163e-05 -0.00097460299969 0.00012918231148 0.00060632601379 -0.0006726594425 0.0010351639604 
0.00029274500363 -0.00080097971066 1.9370686802e-05 0.00057911498235 -0.0007142545844 -1.5464503692e-05 0.00026662195352 -0.00070091878221 -2.1149211703e-05 
0.0006604342387 -0.00072896361883 -0.00010416900017 0.00027246517465 -0.00071509846993 -9.0553851394e-06 0.00025057046389 -0.0012051220892 0.00014245093852 
0.00019487866995 -0.0019489198932 0.0007613752125 -9.8522230991e-05 0.00031443850581 0.00039432531494 -1.4052473889e-05 0.0003870195511 -0.00044959324042 
5.5260852504e-05 -0.00012707110137 0.00063664357224 -0.00067460095077 -0.0007964251606 -0.00037975617186 -9.7223197691e-05 0.000352845958 0.00054071595365 
-4.5150311861e-05 0.00011413507699 0.00013632131923 -0.00029952348599 0.00038166167247 0.00037244589816 -0.0017776921346 -0.0014069245965 0.00040323315813 
0.00087413772461 -3.8067996851e-05 -0.00017221061217 0.00037136598095 -0.00088737947088 -2.2356030677e-05 0.00041452435443 -0.00093843945285 -1.2730412245e-05 
0.00017632884237 0.00079910726859 -0.00054494095181 0.00070546372063 -0.0003508668143 0.0011772082867 0.0006233602058 -0.0010320783422 0.00065690746004 
0.00048933652766 -0.00067095997034 -1.8071395648e-05 0.00053686387556 -0.000954045645 -0.00068170922052 -0.0002960333221 -0.00072060562955 0.00045283116733 
0.00032512748704 -0.00081810590064 -0.00081473431479 0.00065672104404 -0.00072663746014 0.0004560819668 -0.00038781267159 -0.00031389722995 0.00069718921556 
-0.00027862653861 -0.00031337414986 9.8863735225e-05 -0.00016844964081 -0.0010315224871 -4.3491731999e-05 -0.00013547695082 -0.00079128812626 -0.00023519299889 
0.00023980588501 -0.0003950753274 -5.3316174235e-05 0.00072489879749 -0.0013425450537 0.00027862878486 0.00046102422111 -0.0010034984783 7.6588233461e-06 
0.00054108667559 -0.00081027129944 0.00056510492074 0.00083789531673 -0.0018813393629 0.00019899349288 0.00013037316491 -0.0013637210499 4.9471136541e-05 
-0.001108469891 0.0010214581248 -0.00019393570749 -1.6768718734e-05 -0.00040509505771 -0.00028565762646 0.000167012889 -0.0010450692794 -6.8616459147e-05 
9.1676110868e-05 -0.0012238490342 0.00022869612249 -0.00056668704763 -0.00048681746217 -4.1299366357e-05 0.00038599152143 -0.00075610699708 6.1240075589e-05 
-0.00038182598393 0.00011763649225 -2.6639281051e-05 -0.00016041430006 -0.00069951996682 0.00036735377712 0.00012387428229 -0.00048758154777 0.00065002095266 
6.1055781406e-05 -0.00098157318063 -0.00015351136251 0.00014959218969 -0.00094866625257 0.000230870464 0.00025896417153 -0.0011028723052 5.4596328514e-05 
-2.9315267649e-05 -0.00092923436536 -0.00012275555366 5.7988072217e-05 -0.0008349825143 5.5004546858e-05 0.00015386846564 -0.00077130582181 -0.00012568236183 
0.00021088212312 -0.00067006818221 5.2803182144e-05 -5.4682415265e-05 -0.00047241605166 9.8299983246e-05 0.00051336416988 -0.0016040457348 -0.00023565299436 
0.00038270171301 -0.0011599668086 0.00045638243774 0.00050051298682 -0.00089213584215 -0.00039873281189 0.00015535329501 -0.00080304159167 0.00050324571158 
0.00048660379432 -0.00082866976826 0.00044466456475 0.00016337903594 -0.00064426148753 -0.00026760156645 0.0001628083755 -0.00088895759509 3.7696972197e-05 
0.00020030224383 -0.00061390779306 -3.5180467176e-05 0.000141396136 -0.00092389126074 8.6054514004e-05 0.00012518179253 -0.00089834326499 -1.0612219372e-05 
0.00015716741684 -0.0011217752606 -2.509914473e-05 0.00020135242056 -0.0014170975959 -3.0385809412e-05 9.8636852022e-05 -0.00095347292319 -7.3533594311e-05 
-0.00034988196049 -0.00078759896942 -8.8164072187e-05 -0.00020494353455 -0.00079200781924 0.00012635968735 0.00012723656534 -0.00080124519162 0.00016456922011 
0.00030246714359 -0.00093213386265 -3.6932969514e-05 0.00057869341106 -0.00068949518565 -4.8754926235e-06 0.00036585085027 -0.0009689832357 -1.7111411908e-05 
-6.4733705042e-05 -0.0012011552466 0.00016544924983 9.9153421124e-05 -0.00082597200914 2.4053901992e-05 0.00033169859734 -0.00095042464452 -6.3790615898e-05 
8.8799606645e-05 -0.00037109701423 -8.8395973556e-05 0.00015508778907 -0.0011866729432 -0.00074335973119 -0.00020360102602 -0.00073351530053 -0.00012185264974 
0.00035621078382 -0.00059750654413 -1.5855454045e-05 0.00057636458064 -0.0010650878113 -0.000246802686 0.00043817129472 -0.0012592173896 -0.00026778788294 
0.00032689754896 -0.00081845645069 0.00017218743509 0.0004830447539 -0.00089850717685 -2.2131100117e-05 0.00039075923738 -0.00076696064642 -3.634248962e-05 
5.3440443955e-05 -0.0011946105061 -8.1015865085e-05 5.0015002517e-06 -1.3193309822e-05 -0.00030175101449 -2.4910713629e-05 -0.00021771691251 0.00050584330059 
7.8945387897e-06 5.4356373426e-06 0.00025055358607 -0.00012779236873 -6.1159370669e-05 -0.00019566907577 -5.0282126546e-05 0.00025031693886 0.0010521906245 
-0.00012351763995 -0.00057509421166 3.7845153838e-05 -0.00068387717531 -0.00036015836916 -0.00049662694345 -0.00089858947798 0.00044055761284 0.00056601519368 
0.00024536980737 -0.00081410884257 -0.00025619979143 -6.8805652281e-05 -0.00083358144637 -0.00023244817693 0.00018955245695 -0.00014160520038 1.1224608465e-05 
0.002651452845 -0.00027468961289 5.0276193087e-05 -0.00084543608704 -0.00078763634249 0.00041302821204 -0.00064477915886 -0.00075059006192 -0.0011969820213 
0.00084135263597 -0.00048121779755 4.1198556902e-05 0.00019684815479 -0.0010468831267 4.6731862395e-05 -4.8572503917e-05 -0.00092545009163 -2.5095094986e-05 
0.00073307138875 -0.0024436299267 0.00054531542948 0.0014940679688 9.397397528e-05 0.00030983771399 0.0010000388142 -0.00067122007379 0.00087521237826 
0.00040566521501 -0.00034134596382 3.9976350255e-05 0.00022211824228 -0.00087610448878 0.00048931506532 -0.00050062506678 -0.00056511570954 -1.4788492161e-05 
0.00014249442668 -0.00044891670117 0.00026774482007 2.7127068698e-05 0.0002245089165 -1.8645273356e-05 0.0002168629235 -0.0019759704483 -1.5970983902e-05 
0.00027984594609 -0.0013141681078 -1.662871838e-05 0.00022798353951 -0.00075447311693 7.6609420587e-06 -3.7427821636e-05 -0.0010723925357 -0.00033466365111 
-5.1974782825e-05 -0.00047269949911 0.0005107233896 0.00086828188698 -0.00036756650646 0.00057483559206 -0.00065638905287 -0.0015497820587 -0.00039092331149 
0.00062881286367 -0.0013023023633 0.00054611011378 -3.7685183066e-06 -0.0014537180649 0.00065740649755 0.00057643299012 -0.0025053304828 -0.0010039008495 
-0.00014611253878 -0.00099579314466 0.00022025078851 0.00010197746927 -0.0010195781517 0.00026057544268 0.00076482973747 -0.0013922187272 -1.9478967657e-05 
-0.00010388619898 -0.0013908899179 0.00048466307055 0.00040306464765 -0.0008173877634 0.00021831940899 0.00011156789741 -0.00067824198266 -4.9181169501e-05 
0.000129523527 -0.00090473093479 0.00014772686416 -0.00065187868905 -0.0011193739106 -0.00072099600435 -6.0960788574e-05 -0.00030311212254 0.00011583878216 
0.00057962396397 -0.0024152535802 0.00032804748344 0.00043031070823 -0.0015845706899 -0.00032850276209 0.00055412054608 -0.0012762560558 -6.5874357078e-06 
-7.2090079854e-05 -0.00088188304711 0.00040274316532 0.00016576794967 -0.0011892887788 -2.119377923e-06 -0.00012254570415 -0.00095836114894 0.00021225837623 
0.00086620054765 -0.00060562829831 0.00022037418908 0.0003648649831 -0.00060705369773 -4.9689518365e-05 0.00027555341402 -0.0010667349265 -8.4176310905e-06 
0.00031248289681 -0.00081426828871 -0.0002524892421 0.00039626849724 -0.0012640546756 -9.8907835654e-05 0.00088585546784 -0.0010128578141 -4.2336202112e-05 
4.9434940137e-06 -0.0011772804386 0.00036111657582 0.000206303 -0.0014977889028 -0.0010724398652 -0.00011823435839 -0.00057975184743 0.00017521919561 
0.00041881079776 -0.00066529605315 1.2543120814e-06 0.00017702840827 -0.0011804499305 -0.00056610427394 0.00015255563605 -0.001130776627 -6.1777768595e-06 
0.0002913392825 -0.0011375748358 0.00012028909583 0.00079653637902 -0.001098689705 -0.00012432908393 0.00050970416832 -0.00062949567969 3.6585865508e-06 
0.00012028099963 -0.00078501493684 -0.00034759077931 7.5260492848e-05 -0.0011340424328 0.00012006305567 0.00017946763945 -0.00096027166257 -0.00014605169726 
-3.7825889206e-06 -0.0010698216973 -0.00024546838327 0.0002444864119 -0.0010568143201 0.00011834301004 0.00049582037866 -0.001185081968 2.7859978952e-05 
0.00013785824105 -0.00088061367006 -4.4176154955e-05 -0.00020519882132 -0.0015198016136 -0.00041827758002 -0.00012949848835 -0.00080947076989 -9.7828618013e-05 
0.00036713081529 -0.0010381669744 0.00020279465649 0.00035316204728 -0.0008278230569 0.00011319137379 9.7836174313e-05 -0.0010613992954 0.00017502896905 
0.00014434284249 -0.00051737077734 -1.4595416502e-05 0.00063287006098 -0.0013012319784 -1.8854811509e-05 0.00043894079166 -0.0012660094177 0.00054247787858 
0.000518294385 -0.00073007186614 -3.9164285668e-05 0.00048806049813 -0.00102047214 8.6475895487e-05 7.2643188249e-05 -0.00075831491545 0.00045026716271 
0.0002795921721 7.1826763176e-05 3.892612033e-05 0.00011185600027 -0.0008440444378 0.00046894936288 6.9749766339e-05 -0.00017730010437 0.0013515387143 
-0.00049446377751 -0.00087975404338 0.0014458081359 0.00013048767424 -0.00026360022802 -3.3410989966e-05 0.00051714617427 0.00038295388027 0.0006296067167 
0.0003779848403 -0.00023360505064 0.0010785887626 -0.00092422773951 -0.00088513647558 -0.00047115623963 -7.1268687837e-05 0.001582765134 -0.00078666897327 
0.0004612922685 -0.00028627889003 0.0013145870268 -0.0006008513263 4.1797640372e-05 -0.00071705050457 -0.00018990298715 -0.0006608896431 -3.0959909105e-05 
0.00081859758562 -6.0631979084e-05 -7.6421577169e-05 0.00041433349281 -0.00067248615554 5.1253001939e-05 3.5926862725e-05 -0.00044488743068 1.0270228278e-05 
0.00050188720701 -0.00016724819096 0.00033291176344 0.0004394140874 -4.2187231862e-05 7.3104177957e-05 0.00042130585345 -0.00031174837617 -1.810600358e-06 
-0.00029523869459 -0.00063506601661 0.00011756685037 0.00084177966198 -0.00094015885675 6.9728660124e-05 0.00035618152396 -0.00056738542028 0.00057286575152 
0.00014763421527 -5.1305903369e-05 0.00038837906217 0.00036289464497 -0.00081154173522 0.00028595485085 -0.00020385024026 -0.00011340727629 0.0010909785368 
-0.00034552882171 0.00067851146169 -0.00027944960482 -0.00073635072442 -0.0016112363496 0.0011899423945 -0.00074317273791 -0.00019099694361 -0.00010557943307 
-0.00068431270636 -0.0023990361086 0.00070259904168 0.00041659267535 -0.00038191674519 0.0015746624664 0.00071193243487 -0.00065732799178 0.0014281366306 
0.00019031855617 -0.00053168533502 4.9314657914e-05 -0.00077852547388 -0.00031063783222 0.00038647404116 -0.00072281254304 -0.00048740213715 2.8473981068e-05 
0.00022076799669 6.4566428213e-05 -0.00055763517982 0.00052625005791 3.3895497583e-05 7.7593494878e-06 -7.2665946356e-05 -0.00080542272362 3.7399557277e-05 
0.00025697654314 -0.00069734608016 0.00045679215396 0.00021041219662 -0.0014209349463 0.00029095278709 7.5893019123e-05 -0.00033590691262 0.00053211232851 
-0.00058468964601 -0.0019802412006 3.529997174e-06 -0.00011463479112 -0.00075204879771 -7.3770341276e-05 -0.00071996150826 -0.00097223410261 -0.0003020824195 
-0.00023804582951 -0.00070615981149 9.8390996525e-05 -0.0007883744501 -0.001088473741 -0.00047209255282 -5.7077374464e-05 -0.00087174755528 -0.00020054844865 
-3.933582088e-05 -0.00085760662023 -2.2072232304e-06 -0.00037111788924 -0.00061067474816 -0.00042832519528 0.00025499401248 -0.00083405724752 8.6313440478e-05 
0.00038756456132 -0.0010664057442 -0.00018041260401 -0.00015527187658 -0.0010262857655 -0.000133211581 0.00021042460404 -0.00074133574052 0.00046695841195 
-0.00036040778951 -0.0011740212875 -1.2278044329e-05 0.00016626567942 -0.0005634417809 9.7930315182e-05 0.00048587438404 -0.00096613320728 7.2079546287e-05 
-0.00040451967282 -0.00055639992274 -0.00077231030612 0.00043442833878 -0.00097910209355 -7.1758438987e-05 0.00045246038398 -0.00080125747078 -2.3564230111e-07 
0.00021601121249 -0.0010956180812 1.1602633526e-05 -0.00052634531476 -0.00059899635269 9.0801734662e-05 0.00014657471563 -0.0011744950575 -3.0669692319e-05 
-0.00023591089086 -0.0010105343887 0.00031892855034 -0.00036093234893 -0.0010240605238 -1.4549535626e-05 0.00015048529976 -0.0012197340553 -6.0103106666e-06 
0.00047309054373 -0.0012853855868 -0.00024038207399 0.00011534982177 -0.000851702098 3.056869457e-05 0.00052769117714 -0.0011198148042 -5.3831452714e-05 
0.00021734212141 -0.00062910694263 3.5067648853e-05 -0.00077372649156 -0.0018773490844 0.00027939943012 0.0004364784386 -0.00087165932031 -0.00013274510424 
8.3791168868e-05 -0.00051404758723 -6.324016971e-06 9.7743650743e-05 -0.00095685178057 -3.4240520638e-05 4.01389339e-06 -0.001184208004 -0.00012404768197 
0.00019852399333 -0.00095872683799 -3.5638105631e-05 0.0007999482988 -0.001046931661 6.9190998712e-06 0.00026500498716 -0.0012507259552 -0.00018102559509 
0.00027096404855 -0.0012915325847 3.1272223017e-05 0.00041192187297 -0.00072073824618 -8.765396773e-05 -0.00015651549899 -0.0013354824207 -0.00010497737856 
-7.8372441573e-05 -0.0010484020846 1.8061966497e-05 0.00023061459793 -0.0012178647646 -0.00011981564722 0.00046521469159 -0.00085047584913 0.0002454547378 