# vtk DataFile Version 4.1
vtk output
ASCII
DATASET UNSTRUCTURED_GRID
POINTS 1274 float
0.298571 1.07872 0.0390296 0.254712 1.17286 0.1328 0.266838 1.13481 0.265975 
0.268962 1.13594 0.0709422 0.217999 1.25546 0.0323194 0.230828 1.23868 0.108607 
0.256462 1.16955 0.208934 0.244132 1.19676 0.268548 0.194691 1.32896 0.0387418 
0.198463 1.29841 0.100856 0.212669 1.26575 0.200903 0.220634 1.26147 0.265789 
0.162815 1.38856 0.0595573 0.143682 1.45406 0.0392305 0.172532 1.3855 0.13058 
0.169364 1.3919 0.209331 0.143101 1.44879 0.263329 0.11413 1.52618 0.0387252 
0.168201 1.54489 0.0772723 0.173354 1.48669 0.102484 0.106221 1.54498 0.119131 
0.165154 1.51682 0.164712 0.10353 1.54018 0.263227 0.12177 1.48871 0.206275 
0.114013 1.59729 0.0326533 0.119563 1.55397 0.198358 0.0793026 1.61153 0.222165 
0.0618459 1.63827 0.033694 0.110603 1.70212 0.059686 0.104394 1.63729 0.0924349 
0.042142 1.70728 0.0382195 0.110104 1.63003 0.161493 0.0832624 1.68375 0.197637 
0.0562319 1.77519 0.0454232 0.111013 1.83085 0.0539069 0.0478896 1.71954 0.120165 
0.105093 1.78081 0.126809 0.0375855 1.74529 0.204766 0.0935691 1.77713 0.198434 
0.0636348 1.9237 0.0571641 0.10928 1.89139 0.0979628 0.0828044 1.84169 0.204183 
0.0600361 1.92237 0.212869 0.108241 1.87271 0.261099 0.108097 1.96267 0.12163 
0.109119 2.01952 0.0572151 0.0920693 2.0016 0.216452 0.109962 2.02589 0.152264 
0.315445 1.01326 0.0302147 0.352361 0.925095 0.0820041 0.334616 0.992434 0.0971284 
0.340781 0.969663 0.179441 0.322525 1.00475 0.237891 0.352047 0.94152 0.252617 
0.312999 1.0554 0.195371 0.296027 1.07438 0.264275 0.378032 1.03498 0.0366457 
0.367049 1.04414 0.141973 0.276868 1.19918 0.0378743 0.345866 1.13768 0.0375377 
0.312957 1.08723 0.114206 0.360886 1.05784 0.268468 0.317633 1.18107 0.262766 
0.297889 1.12116 0.178194 0.333954 1.2413 0.0308693 0.280955 1.26767 0.0637354 
0.309869 1.30226 0.11497 0.227017 1.32165 0.160942 0.319773 1.17687 0.0930874 
0.287728 1.25369 0.266694 0.249839 1.22451 0.172997 0.196495 1.31955 0.243516 
0.281137 1.27745 0.165572 0.310518 1.19375 0.169995 0.238622 1.3585 0.0944002 
0.286742 1.3604 0.150741 0.249141 1.4038 0.0363493 0.333361 1.31599 0.0397545 
0.271453 1.42661 0.134561 0.215968 1.4344 0.103615 0.20199 1.38077 0.269746 
0.260718 1.40372 0.24057 0.317089 1.25 0.208592 0.327494 1.3755 0.209202 
0.234253 1.39158 0.174792 0.261086 1.31625 0.241655 0.21917 1.47227 0.0387769 
0.287551 1.49627 0.0342906 0.30867 1.43675 0.047789 0.197145 1.45188 0.168119 
0.249737 1.48682 0.137537 0.178869 1.51264 0.241991 0.2455 1.49155 0.251958 
0.239739 1.54432 0.0500675 0.166344 1.63634 0.0328076 0.26003 1.61051 0.036771 
0.20261 1.6054 0.0851983 0.163979 1.58754 0.147691 0.263348 1.55287 0.120818 
0.234216 1.55346 0.214862 0.15703 1.61961 0.222828 0.283959 1.59376 0.230181 
0.230422 1.59441 0.164217 0.224417 1.66546 0.0345006 0.174903 1.6966 0.0607417 
0.255084 1.64827 0.090003 0.140526 1.70362 0.126566 0.19588 1.65601 0.151746 
0.213045 1.6728 0.22118 0.145961 1.69287 0.22084 0.265367 1.6425 0.187923 
0.15507 1.76129 0.0452653 0.200317 1.79309 0.124595 0.204946 1.72669 0.105695 
0.147886 1.75697 0.228099 0.199771 1.83264 0.196524 0.244504 1.73867 0.214956 
0.186725 1.72986 0.180315 0.244471 1.80314 0.236272 0.159264 1.79148 0.171911 
0.162857 1.82083 0.257561 0.193654 1.83681 0.047817 0.24403 1.86627 0.123885 
0.156792 1.93171 0.0656751 0.189439 1.94889 0.12431 0.149097 1.85136 0.138525 
0.141629 1.92755 0.223792 0.143889 1.861 0.202167 0.193716 1.89225 0.170817 
0.197616 1.88415 0.241162 0.196141 2.00599 0.0552032 0.162924 2.01153 0.116853 
0.207515 2.01294 0.20854 0.151296 1.98255 0.177008 0.23728 1.97041 0.16347 
0.224111 2.03001 0.140199 0.373118 0.87871 0.1391 0.361204 0.96109 0.031636 
0.409981 0.90104 0.0560485 0.395208 0.997531 0.237411 0.407755 0.871775 0.235696 
0.441489 0.95423 0.197736 0.418054 1.02246 0.0938138 0.423136 1.09778 0.0363754 
0.376733 1.08242 0.0850232 0.367316 1.12727 0.265847 0.423899 1.08373 0.263211 
0.399322 0.958805 0.138613 0.383202 1.06312 0.207006 0.357444 1.13498 0.142143 
0.387979 1.20091 0.0424092 0.403798 1.14777 0.0927327 0.339559 1.23928 0.122182 
0.406648 1.20776 0.139885 0.369489 1.21115 0.200646 0.381304 1.14021 0.201812 
0.382665 1.20924 0.266296 0.361971 1.38938 0.0406717 0.391633 1.27563 0.0695772 
0.310203 1.36111 0.09044 0.359317 1.32928 0.156149 0.365535 1.3575 0.267038 
0.374905 1.277 0.200674 0.404674 1.34402 0.212497 0.324998 1.30504 0.249052 
0.326719 1.41879 0.105998 0.398474 1.37973 0.103633 0.398448 1.45837 0.0390298 
0.349554 1.47339 0.0880902 0.334405 1.45721 0.160233 0.316472 1.45681 0.232733 
0.376485 1.42223 0.256162 0.287851 1.50452 0.188406 0.389956 1.40158 0.174135 
0.375807 1.48435 0.209439 0.346597 1.52481 0.0465236 0.361781 1.55593 0.103644 
0.366634 1.59619 0.0396731 0.304913 1.57806 0.0701624 0.329164 1.53241 0.246531 
0.376361 1.58911 0.240609 0.339678 1.52358 0.159744 0.303827 1.57292 0.173952 
0.3043 1.67233 0.048039 0.365047 1.62305 0.118648 0.26317 1.69786 0.138866 
0.295934 1.61858 0.128386 0.347216 1.69538 0.127269 0.295104 1.69533 0.208808 
0.336854 1.63277 0.196136 0.259947 1.74872 0.0473312 0.303204 1.82245 0.0489267 
0.358485 1.7616 0.0532105 0.256195 1.76516 0.112885 0.35236 1.81612 0.0920415 
0.311983 1.79136 0.136849 0.333787 1.75021 0.206998 0.251658 1.80639 0.166224 
0.257423 1.91863 0.0601819 0.342721 1.93884 0.0555942 0.307627 1.89237 0.103258 
0.332047 1.85414 0.146497 0.299982 1.8404 0.230449 0.287616 1.94264 0.138036 
0.253982 1.9181 0.208256 0.363394 1.93564 0.198861 0.352973 1.86913 0.205192 
0.319299 1.91638 0.254792 0.311586 2.02491 0.0544922 0.360026 1.99263 0.0929091 
0.260337 1.98866 0.0922544 0.283283 1.99945 0.213844 0.339942 1.99886 0.166818 
0.33958 1.98334 0.237879 0.465567 0.866267 0.0425871 0.477527 0.930623 0.0781661 
0.432691 0.897491 0.123024 0.476643 0.887371 0.226935 0.496546 0.936724 0.14879 
0.428749 0.979171 0.0387306 0.502096 1.06238 0.0396796 0.477623 1.00824 0.12642 
0.458164 1.01553 0.25507 0.424817 1.09197 0.140618 0.50238 0.979934 0.221596 
0.496613 1.06535 0.235264 0.434117 1.02495 0.1826 0.44969 1.16395 0.0351472 
0.446591 1.21895 0.0807331 0.472075 1.11864 0.0783908 0.477107 1.17891 0.135742 
0.427689 1.17946 0.220856 0.499998 1.09033 0.133111 0.502433 1.17208 0.20754 
0.458114 1.11808 0.205753 0.424285 1.34947 0.0351668 0.481758 1.25723 0.0349863 
0.451152 1.30678 0.0918957 0.412349 1.27713 0.147172 0.435466 1.3413 0.147087 
0.447053 1.37523 0.262127 0.471124 1.22319 0.226834 0.498531 1.31824 0.220871 
0.439914 1.27997 0.217736 0.497956 1.32042 0.152157 0.46318 1.24251 0.162369 
0.404169 1.45194 0.121539 0.462682 1.40704 0.0604225 0.503457 1.36915 0.102363 
0.513743 1.43441 0.136978 0.494703 1.42494 0.212476 0.427084 1.46303 0.244315 
0.456894 1.40835 0.158294 0.425863 1.5231 0.0667811 0.447012 1.59293 0.0467974 
0.49502 1.54292 0.0747396 0.47578 1.46858 0.0901043 0.452596 1.52076 0.139443 
0.430383 1.5147 0.209627 0.502644 1.49668 0.211646 0.455428 1.574 0.222497 
0.395306 1.55628 0.171967 0.407807 1.66115 0.0413331 0.448442 1.70047 0.0794788 
0.491191 1.66885 0.120551 0.440035 1.64036 0.0989269 0.428727 1.60997 0.152641 
0.452172 1.71713 0.138594 0.398658 1.67057 0.209634 0.490521 1.60003 0.127351 
0.490925 1.67378 0.227219 0.49663 1.61458 0.191601 0.455996 1.66382 0.173243 
0.413044 1.83109 0.0481007 0.451102 1.76202 0.0476261 0.499853 1.82625 0.0366018 
0.404938 1.74081 0.0940694 0.39952 1.79252 0.136956 0.491658 1.78511 0.13812 
0.446286 1.74254 0.22103 0.393605 1.77411 0.203391 0.490871 1.78489 0.207577 
0.444473 1.86575 0.123665 0.400932 1.94175 0.123848 0.447484 1.93344 0.0610103 
0.388655 1.88932 0.0727858 0.408698 1.83538 0.201234 0.4979 1.84775 0.212062 
0.498513 1.95913 0.127875 0.452989 1.93049 0.221252 0.489 1.8955 0.16761 
0.390445 1.9445 0.262837 0.409044 2.01991 0.0527541 0.499125 2.01543 0.0610582 
0.446046 1.99136 0.0995388 0.394227 2.02262 0.220749 0.453484 1.99712 0.261221 
0.556928 0.884961 0.0528254 0.574198 0.952131 0.0727545 0.547976 0.898165 0.121389 
0.61223 0.917868 0.123653 0.552367 0.88288 0.22052 0.572592 0.938641 0.183037 
0.521978 0.971916 0.0350732 0.624833 0.990308 0.0392038 0.575352 1.05192 0.056013 
0.537047 1.0122 0.0886349 0.569657 0.992777 0.147508 0.607441 0.985651 0.216126 
0.624339 1.07763 0.14937 0.566149 1.06134 0.225557 0.519799 1.02886 0.180143 
0.519008 1.1479 0.0363947 0.595173 1.13541 0.0613186 0.527406 1.14426 0.103159 
0.569377 1.09278 0.107537 0.515366 1.20459 0.0778242 0.590572 1.19205 0.0907454 
0.552501 1.18701 0.141783 0.610901 1.13848 0.22254 0.548536 1.12304 0.181479 
0.54418 1.12642 0.260494 0.51482 1.31567 0.0634143 0.567408 1.24155 0.0472624 
0.614218 1.33 0.062467 0.513835 1.25674 0.122845 0.607499 1.2706 0.134733 
0.538711 1.2324 0.224601 0.614154 1.32413 0.21229 0.599044 1.21697 0.186681 
0.551149 1.28378 0.178202 0.559991 1.2945 0.249906 0.54261 1.39601 0.0502345 
0.551306 1.45669 0.0876567 0.561028 1.35173 0.134028 0.598673 1.43078 0.133469 
0.548629 1.38623 0.234459 0.593196 1.38198 0.186148 0.604252 1.41848 0.245194 
0.519641 1.49062 0.0391537 0.557331 1.53938 0.118804 0.609869 1.49096 0.0419855 
0.560715 1.57968 0.0568934 0.608465 1.49642 0.111249 0.605996 1.48426 0.21579 
0.540529 1.56848 0.208151 0.555005 1.48326 0.159857 0.592696 1.54158 0.176726 
0.594874 1.55068 0.239616 0.50548 1.66843 0.0509821 0.599226 1.68009 0.0566569 
0.558974 1.63633 0.0888789 0.545302 1.70064 0.127181 0.596106 1.59827 0.134308 
0.58992 1.6676 0.205291 0.59828 1.59814 0.201363 0.538039 1.62894 0.242026 
0.53648 1.64096 0.151931 0.550283 1.69145 0.259357 0.552769 1.74818 0.0574799 
0.546675 1.80284 0.100672 0.598079 1.7811 0.133481 0.534142 1.74429 0.228474 
0.547733 1.75206 0.166108 0.605168 1.72954 0.175787 0.549181 1.82361 0.171683 
0.540986 1.80786 0.239523 0.600436 1.73347 0.242462 0.547249 1.87857 0.119775 
0.595963 1.83881 0.0619953 0.542896 1.91288 0.0414398 0.608948 1.94833 0.124082 
0.590865 1.90046 0.08092 0.500859 1.84229 0.100689 0.588864 1.84794 0.222792 
[...]
POINT_DATA 1274
FIELD FieldData 10
VELOCITY 3 1274 double
0.87810806058 -2.9992367824 -0.089612309256 1.019498091 -2.4402146796 -0.42967502175 1.1129600202 -2.7054173276 0.35366508917 
1.2713625705 -3.0333730249 0.36397353303 1.0728202974 -2.6054208398 2.0251403276e-09 0.96831572488 -2.2996937525 0.44623180102 
1.2158552098 -2.9529106204 0.24907680624 1.15842242 -2.3840612776 -0.014810553057 1.0700710804 -2.6023901639 0.022200668791 
0.94915299082 -2.3291009036 0.20365133848 1.1584641166 -2.7687972931 -0.086454742135 0.79095564099 -2.1967670791 0.00040179214039 
1.0299761252 -2.4972262774 -0.26499405054 1.0198773806 -2.4148688779 0.007771273892 0.8952733629 -2.1773073417 -0.21721189242 
0.98996650298 -2.3972561809 -0.17405327318 0.96867100227 -2.3684578449 -0.0041510710923 1.1265949765 -2.3651164393 0.014608092213 
1.139655715 -2.7360116464 0.17733996393 0.77968322474 -2.7030596331 0.42009128335 0.74469497351 -1.5076785755 -0.068135526472 
0.93848064483 -2.7630040055 -0.033711893662 0.83741454994 -2.0337211415 0.87344973078 0.75397836673 -1.8125615642 0.52305721289 
1.0035944105 -2.3677004761 0.0013780170967 0.59533148529 -3.1410429748 0.34097991383 0.78187383153 -2.3764685892 0.63633560014 
0.9927388925 -2.3651246529 -0.020544362146 0.090339467926 -3.1321335248 -0.14897174526 0.31509545594 -2.8840484682 0.48484225409 
0.082806804079 -2.5983971001 0.00078732167462 0.58287766769 -2.7914118312 0.47755523903 -0.02109011925 -2.5578711205 -0.44870636031 
-0.048943110998 -2.5378536275 0.19371609088 0 -4.116 0 -0.031636481818 -3.9915337425 0.2663953404 
0.024743306317 -4.016488558 0.013911731719 -0.0097367830402 -4.1181261684 -0.00088926025203 -0.0168240163 -4.1070344844 -0.0036865161449 
-0.0051610347979 -4.1119265625 -0.0049320275031 -0.00108568161 -4.1168910014 -0.0089875662206 -0.0063497317624 -4.1053597285 -0.0019716598429 
0 -4.116 0 -0.19681062757 -3.8604132489 0.10899448407 -0.0059602975935 -4.1152467437 -0.010387538316 
0 -4.116 0 -0.0098909338758 -4.1080620054 0.0042427094831 -0.0015832258097 -4.1148313508 -0.001379877976 
1.2213167322 -2.9288096734 0.00040801118362 1.4734805258 -3.5881196389 0.34375989957 1.3582508935 -3.288943791 -0.47741560071 
1.2571049506 -3.0529693034 0.41710218788 1.272889196 -3.0913024725 0.44936960439 1.2309306735 -3.03876486 0.54768717107 
1.0417741551 -3.3967123853 -0.02364625037 1.1222540454 -2.7255014846 -0.041323200881 1.6175467522 -3.7123407872 0.12122221785 
0.67046468726 -3.3880938971 0.21824928007 1.1801344949 -3.1517157574 0.0096946657959 1.2596289831 -3.2107822152 0.014861205903 
0.57792252952 -3.4352007457 0.055242007149 0.96389614839 -3.3719330378 -5.6447739601e-05 1.2127658206 -2.83385864 -7.0711788307e-05 
0.43817523223 -3.3847359467 -0.0036617084459 1.0533550815 -2.9851289281 0.0003079468415 1.1711872617 -3.1314531084 0.073827079962 
1.1775953283 -3.0619908269 -0.039117187477 1.5505354809 -2.6272972128 0.21508246447 1.3684004072 -3.0485713743 0.027048242758 
0.7079991564 -2.9673129492 -0.0020595311235 1.2061381194 -2.9513214613 0.24369002104 0.26024864524 -2.3789116887 0.09844916099 
1.2574519941 -3.0142696458 0.030749253777 1.2046638716 -3.5003371295 -0.090609797173 1.2497279686 -2.8556197603 0.020393487139 
1.3580621649 -2.6656376363 0.19056604944 0.93449185407 -2.7844346419 0.0017813306582 1.0968923811 -3.0452419798 0.0097609106812 
1.2320243918 -2.7503794208 -0.18372733446 1.1699007599 -2.5517988811 -0.34072065401 0.74506835656 -2.3586267098 -0.019338281141 
1.156829122 -3.0304701695 0.24398390514 0.85741041218 -3.5429161069 0.030037691503 1.1698426325 -3.2485066469 0.61540186881 
1.3413042125 -2.568185961 0.070883144551 0.4471299145 -3.5285344631 0.46598963953 1.1073031192 -2.7048699394 0.095888863217 
0.43902357273 -3.1879538235 -0.37965901437 1.0265983581 -2.9134805467 -0.059102516392 1.4586739095 -2.5179535386 -0.18060313889 
1.3220953398 -2.696247231 -0.65326375318 1.2295256109 -2.4403350242 0.056714987104 0.95226299196 -3.4994607048 0.36188973316 
0.95147055606 -2.5796342165 -0.33328267772 0.96119634061 -2.2527460137 -0.018772018762 0.83946507882 -2.5908299678 -0.54771251289 
0.57841258147 -3.3025617643 -0.59127229858 1.491081521 -2.358273517 0.2543749558 1.4935807926 -2.6893563922 -0.48710047314 
1.556604643 -2.8436199958 0.11393569875 0.84951046609 -3.2156462148 0.56170854315 1.5097275686 -2.8045023011 0.34235214409 
1.6873713454 -3.095333055 0.097252487423 1.0519497203 -2.4192602213 -0.23144461531 0.035037095245 -3.8865967072 0.030352825945 
0.70336275571 -3.4825850687 -0.1761595834 -0.25868682139 -3.3044049108 0.012536078005 0.86318411609 -2.0089360529 0.20904194103 
0.27475025996 -3.713210019 0.45036160314 0.24661825198 -3.9762174536 0.076470966058 0.80625428204 -2.3990018405 0.34814530595 
-0.032013585321 -3.9007954476 0.002634317435 -0.02299944171 -4.0742060141 -0.0093210235838 0.047645783952 -3.9972255778 0.096309403229 
0.19600987653 -3.840665702 0.043207488939 0.027574797365 -4.0590153422 0.050421994281 0.11581253528 -4.0987408135 0.046615034192 
0.14352429349 -3.9761441755 -0.031896164008 0.0059720308529 -4.0936525406 0.032411571907 0.018465214708 -4.0426115204 0.027765212871 
-0.023412899184 -3.7380180387 0.20540876394 0 -4.116 0 -0.00064432012622 -4.0935491732 -0.0054927824484 
0.0013179959479 -4.1142715411 -0.0022404030217 7.6070495708e-06 -4.1158209276 -6.3646902408e-06 0.0071844935877 -4.1172657321 -0.016672784092 
-0.024084178627 -4.0287896679 0.012705669927 -0.020522931464 -4.0162516106 -0.025723105167 0.0027263166168 -4.0846517435 -0.0047261211641 
0.11475281206 -3.8023611946 0.14858317342 0.0092034936185 -4.109655342 -0.026054870239 0.0048689060658 -4.0858855331 -0.029224202053 
0.010240509756 -4.1050419802 0.0025669226864 -0.0061533425862 -4.0563829014 -0.015384092189 0.033011725801 -4.0218053889 -0.071464200954 
-0.02215371333 -4.0234106318 -0.058237063698 1.3325653294 -3.0237867166 0.62773505591 0.61488089485 -3.6505350391 0.030653336343 
1.1725136996 -4.0709636978 -0.11532439842 1.1912781525 -3.2889694326 0.34884576743 0.78352469201 -4.254586308 0.29918082873 
0.78184211532 -4.0470949529 0.16307073574 0.42563214855 -3.945402697 -0.040958101105 0.38600750527 -3.7398981728 0.0011630282802 
0.47474783179 -3.5980423069 -0.15171171279 0.81454955193 -3.1917458598 0.022753086369 0.93669413045 -3.2879978339 -0.0027072546556 
0.96442976211 -3.9279130302 0.0056810011883 0.71969216491 -3.6186086946 0.30806292093 0.69159484403 -3.6676328958 -0.12876435264 
0.66309997112 -3.6163025232 -0.081379729309 0.72336827671 -3.6295933421 -0.057802964158 0.87021111522 -3.2623291753 -0.1172340229 
0.86611227999 -3.564479312 -0.28923149717 1.1846963143 -3.3917545529 -0.096404349711 0.69672687664 -3.6896728099 -0.097821569105 
1.0350958103 -2.4453507612 -0.012963804136 1.0090676696 -2.9745293354 0.023823267786 0.59060471354 -3.7188669977 0.09654093354 
0.97534939743 -3.0368048759 0.018844246327 0.90239329317 -3.0732490584 0.2943831112 0.84850993769 -3.804865646 0.7135791565 
0.3956161311 -3.3509806765 0.1224371706 0.97866426764 -3.3918812572 0.65235602169 1.0040329002 -3.2177881996 -0.11159330877 
1.18181959 -3.0534544989 -0.17966712144 0.61905691829 -3.8169020364 0.19896784294 0.74353935601 -2.8131628823 0.00014511812321 
0.86657108114 -2.8276075118 0.25827588844 0.68821595558 -3.4624702731 0.34872909475 1.1896066887 -3.0055816818 0.56885758155 
0.76092882304 -3.8164870256 0.54238492814 0.46570068627 -3.2097411322 0.52956342989 1.1248640798 -3.6982348514 0.066955776183 
1.175727015 -3.1324768572 0.39635349247 0.54970799181 -3.3780075084 -0.34254721221 0.61905346583 -3.7259083764 -0.20282445312 
0.33033751156 -3.3564574699 0.076936082384 0.01038798656 -3.1800484732 0.030230781281 0.81582377348 -3.0107335068 0.62611036234 
0.94445098381 -3.1282060923 0.47662962749 0.42227765175 -3.431920681 0.29325301604 0.79892869777 -3.4622334307 0.24482406089 
0.66831749225 -3.5812724079 -0.28112070218 0.24969622789 -3.7302749252 -0.060911017209 0.21705817164 -3.8497585691 0.20091409237 
0.36510588422 -3.8097566437 -0.064033719787 0.0043009126068 -3.7880022741 0.030131313456 0.74440297217 -2.3124135408 0.64062205328 
0.61743852413 -3.8272544423 0.065106726602 0.0018009475577 -4.1126023107 -0.015426536332 -9.0638413904e-06 -4.1159928152 -1.5076559322e-05 
-0.00032958552858 -4.1158637409 -0.000127988433 0.028974000802 -3.9506422785 -0.05096306931 0.027353772351 -4.0966371245 -0.015875388425 
0.056669663097 -4.0671039159 0.028017354562 -0.00091600640592 -4.116048895 -8.1365261918e-05 0.023598919449 -4.0610349587 0.034699340107 
0.00080768932054 -4.1168662453 0.00050981200903 -0.00076102442015 -4.115640909 -0.0006177444133 0.0053372799452 -4.1213037548 -0.0038453537403 
0.0016211721559 -4.1181178432 0.0011760694246 0.008935860384 -4.1018191941 0.0080499217771 0.015774283914 -4.114062084 -0.0082789493967 
0.10674078612 -3.9902682199 -0.061991103666 0.016857597715 -4.1122534473 -0.0065862381627 0.0089054527518 -4.1100814812 -0.0019637507516 
0.045651569017 -4.1012950212 0.020537053681 -2.0631518334e-05 -4.1159732838 -3.9797532005e-05 0.00038690652328 -4.115972827 -0.00086220018607 
0.0015133315857 -4.1176357455 0.0021991426124 -0.00081297535652 -4.114968929 -0.00046109948939 0.0014262798926 -4.1149651863 -0.00066445072898 
0.0012133584062 -4.1103505781 0.0018975531541 0.93949165712 -4.4109242696 -0.2451459325 1.2134349543 -4.0029370651 -0.054681611534 
1.7077835199 -4.2000072218 0.50696247167 0.78242144803 -4.2824885805 0.15707802881 0.73388116057 -4.1899084241 -0.14653893424 
0.69091372494 -3.8934665039 -0.005185025228 0.63347421164 -3.9193379399 5.0088749932e-09 0.29162694344 -4.1163834643 -0.052958644262 
1.1549128329 -3.4860078281 0.6817399401 0.79133807167 -3.5374780652 0.089113211449 0.72941481106 -3.9998342998 0.2461984275 
0.72230038162 -3.354400785 0.26808280415 0.60787326326 -3.943795104 0.1581396789 0.52494681675 -3.8884492955 0.060061078363 
1.0127485493 -3.6632088863 -0.21792822908 0.48780787203 -3.9553950667 -0.00073715475935 0.68070751917 -4.0759701565 -0.021839968444 
0.70375818631 -3.6675478565 -0.0042797000502 0.77652834799 -4.1102657905 -0.2239247892 0.93778215482 -3.3562490586 -0.070749731567 
1.0008091334 -3.4109531745 -0.10369078525 0.38984958558 -3.9456399788 0.0027204867774 0.76819794278 -3.2640742714 0.0038097048958 
0.55663556982 -3.7605829 0.24613137457 0.63553545841 -3.563182314 -0.11638282864 0.055717326007 -3.8871088322 0.21149256081 
0.78816331187 -3.0340791242 -0.00015534365329 0.71301753136 -3.5938605739 0.16181873139 0.46694099035 -3.7987980054 0.045669359862 
0.38683489491 -3.750150186 0.19107151668 0.037639680229 -4.1028240291 0.0087050166842 0.30245938573 -4.1238834228 -0.015823547316 
0.87656849323 -3.6315049816 -0.14988174968 0.33381203706 -4.0144458759 0.0026106590904 0.16521624221 -4.172109894 0.10359302913 
1.1675035287 -4.0180450482 -0.29850624912 0.4794955174 -3.8665298297 0.1257579823 0.69679136506 -3.7903351788 0.3443159841 
1.1474492519 -4.0360283378 -0.32954002667 0.69327459583 -2.9337390296 0.34588018181 0.58769895757 -3.0600466189 -0.21608381122 
1.0529457477 -3.2535432515 0.33202852313 0.17664701973 -3.9959288298 0.072805776877 0.62002093049 -3.7987199731 0.3602832568 
0.33428938821 -3.889267184 0.11518451283 0.18870168568 -3.7919039372 0.09121587887 -0.00016929003458 -4.1160521013 7.9425765659e-05 
0.56614348443 -3.6225569288 0.16451195903 0.36149972236 -3.2981426981 -0.12790116156 0.51178642648 -3.6400827987 0.23951035276 
0.21765401289 -3.7607109138 0.032658542567 0.031865039677 -3.4661666439 0.080972387562 0.52504971825 -3.6054479794 0.13311834634 
0.23260104901 -3.5648064806 0.28978636425 0.64150571402 -3.8743221861 0.082148141066 -0.0001349497187 -4.1143830129 -0.00018297346403 
0.21382998951 -3.8608134946 0.29424710598 0.00015642044478 -4.1156243591 8.9597417402e-05 0.31064669949 -3.4857359409 0.13691354363 
0 -4.116 0 0.090344020913 -3.7608039844 -0.1002005662 -0.00014842822272 -4.1157740218 0.00033291348697 
-0.0010275255439 -4.1158005675 0.00070899852729 0.0018846180556 -4.11583125 0.001071089344 -5.1082491149e-05 -4.1160576718 -3.8546067812e-05 
-0.00062559293761 -4.1177865895 0.00029481922557 8.9372175333e-05 -4.1163222565 0.00077914362129 -0.0012941778612 -4.1166059697 -4.8412020509e-05 
-0.00049980882707 -4.1158410068 0.0002829414064 8.7439282318e-05 -4.1157585631 0.00028273738584 6.6294257804e-06 -4.1159895711 -2.0427632281e-06 
-0.00053284956876 -4.1152948814 -6.9809523541e-05 0.0046480463313 -4.1174217297 -0.00061766144076 -0.0025938055224 -4.1136222804 0.00064673430691 
0.0007256331022 -4.1151414653 0.00019939345905 0.0018662659364 -4.1154410299 0.0011156308377 0.0013016399389 -4.1149615696 0.00050017489412 
0.047326677628 -4.104237495 0.019894460367 0.00025936593729 -4.1159536838 -0.00016281749169 -5.1516123565e-06 -4.1159933489 -3.7340561914e-06 
0.0001392540259 -4.1160824317 0.00019525805074 0.0022400746494 -4.1123777286 -0.00082745106766 0.00053439754306 -4.1151724671 0.00070089599625 
0 -4.116 0 0.37921747332 -4.0973610614 -0.22714251204 0.47922604565 -4.5279801108 -0.25040961127 
0.42604462711 -4.2778265911 -0.12632396941 0.023848806667 -4.2469968439 0.10313434221 0.20379930075 -4.2206677183 0.13864980681 
0.76768473748 -3.1923446799 0.054624167825 0.20220831573 -3.7446030613 1.4070341712e-08 0.43786712737 -4.1371203785 -0.24705649318 
0.65262707358 -3.7363349722 0.55004672319 0.28831120708 -4.1670091022 0.15686477663 0.095046467183 -4.0917006342 0.10983804897 
0.31079138924 -4.3045619511 0.14758451566 0.63171649594 -3.7121094082 -0.031396725155 0.26329053542 -4.0539194587 -0.030565671972 
0.48920343573 -4.0485726975 0.0063332542583 0.076306010882 -4.0872983012 -0.067265439112 0.55569922631 -4.2841943401 -0.0021882921556 
0.41326617268 -4.4113371396 -0.029037462872 0.097987329469 -4.113650782 0.020342030222 0.035375408097 -4.1080522163 -0.025420576901 
0.11931713748 -4.0577272179 0.042346984829 0.33852638313 -3.9780696452 0.23107135033 0.473915236 -4.0133060452 0.018172313069 
0.05524509487 -3.9955722717 -0.0018216562617 0.46802911722 -4.0145271691 -0.041796599854 0.063468050918 -4.0885672341 -0.018406672813 
-0.0020411822111 -4.1140146979 -0.0012555059185 0.20099907112 -4.1162884967 -0.14564638629 0.016743177298 -4.1187566967 -0.0056937783047 
-0.00074703314428 -4.1179107299 -0.00095854502899 0.053788589364 -4.1673151089 0.040586148904 0.066659201572 -4.0324869737 0.088443079808 
0.025355665595 -4.1213772568 0.0081630943895 0.29230002894 -4.1350527065 0.11230320052 0.022518825879 -4.1400716117 -0.046103819524 
0.79420812352 -3.7046582535 -0.57810267088 0.1589856636 -4.2112307282 0.093644261002 0.20232082685 -4.1801670957 -0.043382731258 
0.26413682821 -4.2347437621 0.23075137088 0.18665201645 -4.115699345 0.017830963353 0.18521111572 -4.0695978919 0.19896565869 
0.1094099891 -4.1513210258 -0.03864453582 0.05764375846 -3.919513073 -0.15870673883 0.00017693579078 -4.1153538017 -0.0016661074628 
-0.00067504315048 -4.1174197109 -0.0020768861017 0.001206073369 -4.1101599804 -0.0017819389917 -0.0016307012554 -4.114173178 -0.00076813753263 
-5.6477745562e-05 -4.11598835 -0.0003341066562 0.70870486672 -3.7749077001 0.14736458426 0.0045292331277 -4.1126301396 -0.00063343575102 
0 -4.116 0 0.023278326924 -4.0835581153 -0.074004340004 0.0085000092379 -4.0949100972 -0.016986800219 
-0.010830946454 -4.0803160792 -0.021217421093 0.33096140077 -3.9872560242 -0.024482819626 0.053529430396 -3.963889676 0.026702295392 
0.0029910634457 -4.1102680491 0.0032038482923 0.0048072748324 -4.1117988257 0.031707029488 0.049379235081 -4.1399802255 0.038616877312 
0.030757265389 -4.1176475166 0.011524232848 0.001230745639 -4.1248894607 0.012519762129 -0.00010807526521 -4.1161383609 -0.00020788937391 
-0.00014138079549 -4.1160950469 -0.00023748447555 0.028552916147 -4.0902122696 -0.021597667578 -0.0093590831049 -4.1078824583 0.041244124884 
0.030742115552 -4.0155144618 0.05486823425 0.0028602295628 -4.1118870025 -0.0010404626103 4.8863386878e-06 -4.1129567425 0.00088308671282 
0.0014067658594 -4.1032369181 0.010182044061 2.8805774323e-05 -4.1146654495 0.0006068912751 -0.00022996023824 -4.1160086632 0.00042173970519 
-6.6294144005e-06 -4.1160585069 4.7097325645e-06 -0.00031267061211 -4.1161607636 0.00016250173228 0.00022476135295 -4.1157629153 -0.00039623905831 
-0.00018339163362 -4.1161835041 0.00036831052163 -0.00038913850925 -4.1157594173 0.00033333388043 0.00041650815621 -4.1146708034 0.001921481216 
0.0013333074396 -4.1152720087 0.00035459961231 0.0016256657414 -4.1149884703 0.00025606942713 0.0017372275555 -4.1137983527 2.6382145634e-05 
0.0016355491391 -4.1135351438 -0.00086353558293 0.0024019306219 -4.1145664769 0.0017136561693 0.0014485187328 -4.1155671349 0.00052088774554 
0.00067097072405 -4.1154766371 -0.00050041271042 0.00052450081248 -4.1154799132 -0.00057248827503 0.00038058424683 -4.1150499569 0.00035033714842 
0.00076127566012 -4.113848712 0.00070156994973 0.00075316122246 -4.1143274139 -0.00064861975032 0.00089123418685 -4.1149887005 -0.0010313394424 
0.068109944363 -4.2096523099 -0.078841410407 0.048451869194 -4.1265593827 0.020949495154 0.35359150649 -4.0680288078 -0.22450838791 
0.079725233442 -4.1351792311 0.028083415975 0 -4.116 0 0.067970693137 -4.1259709849 -0.00026751151105 
-1.5782826758e-05 -4.1159036241 -0.00041359907571 0.18109448044 -4.0409361123 -0.010344253236 0.0021521629946 -4.1195923439 -0.0040681285345 
4.5748389245e-05 -4.115967028 9.794592124e-05 0.0035482468773 -4.1125033992 0.010809191749 0.096238516275 -4.0575844996 0.080416432301 
0.0019067687366 -4.1175697199 0.00044016890452 0.56912867197 -4.0770161915 0.041621194525 -7.3302203545e-05 -4.1161530563 -5.1330091316e-06 
0.12163526144 -4.1171136056 -0.080601104885 0.0075820763937 -4.1069148871 -0.012939719395 0.015277681637 -4.1121233286 -0.010971214404 
-7.4159039027e-05 -4.1159902716 -5.3500243763e-05 0.0046121616518 -4.1185857397 0.0016700428479 -0.00078500387464 -4.1161813373 0.00032704217411 
0.0033481256541 -4.1160836122 0.0024312883171 0.0003713639033 -4.1161543229 0.00060403013306 -0.00099327784103 -4.1162656589 0.00081196879096 
-0.0010191556947 -4.115095519 -0.00049289504059 -0.0024014796729 -4.1148730843 -0.001708368084 -1.907812201e-05 -4.1158026967 -0.00019405951818 
0 -4.116 0 -0.0024500399587 -4.1145869107 -0.0015469686751 0.092316931971 -4.0638627467 0.046883440569 
0 -4.116 0 -8.8871864262e-06 -4.115994622 3.6718360598e-06 -7.847504768e-05 -4.1172801575 -0.0019859484272 
-1.320288627e-05 -4.1160195517 -3.8401874168e-06 0.0015909104795 -4.1174369333 -0.00033908562161 -0.00011355269483 -4.1158638071 -0.00010028284301 
0 -4.116 0 0.14012651618 -4.0837558933 0.077741635558 0.14384487853 -4.1109107464 0.0028292535557 
0.058030646605 -4.1121418766 -0.020769407517 0.0020032726875 -4.1151502265 -0.0004126127889 0.0016025621473 -4.116973453 0.0010455366346 
-0.00024257860793 -4.1164446996 -0.00098405314776 0.010696110776 -4.1065235263 -0.027423082876 0.0016470469849 -4.1175549052 0.00068370768177 
0 -4.116 0 0.0031097954392 -4.1160330734 0.0017602601894 0.000718521083 -4.1156852167 -0.00027101444005 
0.00010678262031 -4.115638565 0.00036061268518 0.0016985971223 -4.1156559945 0.0008446674881 0.063844685851 -4.0773050419 -0.050909556115 
0.0016732195927 -4.1168720215 -0.00074761387278 0.057258101512 -4.0311697347 -0.015749985026 0 -4.116 0 
0.01007621327 -4.1127294556 0.0095048268696 -3.2435416617e-05 -4.1157071217 -4.9996981499e-06 0.0022923747505 -4.114605864 0.00048757578873 
0 -4.116 0 0 -4.116 0 0.00043288008117 -4.1140093634 0.0012838824733 
-8.1165205746e-05 -4.1138406625 0.0012028834259 0.0034844528181 -4.1149674742 0.00074903408054 0.00011951103895 -4.1158914522 0.00026486687634 
0 -4.116 0 0.012250177626 -4.1051860154 0.0059296554835 -1.280398797e-06 -4.1160046534 -9.6742124588e-06 
-0.00021112719174 -4.1162112415 0.00026461307767 -3.240803734e-05 -4.1160230176 -2.1879368742e-05 0 -4.116 0 