# vtk DataFile Version 4.1
vtk output
ASCII
DATASET UNSTRUCTURED_GRID
POINTS 1274 float
0.511966 0.556326 0.0379519 0.468944 0.652594 0.105414 0.487186 0.599677 0.268458 
0.494185 0.588923 0.0995133 0.422973 0.757647 0.0323141 0.423947 0.769684 0.119035 
0.475088 0.638582 0.213079 0.459874 0.671854 0.268647 0.39292 0.847556 0.059525 
0.397851 0.814099 0.164003 0.445091 0.701328 0.215331 0.431859 0.741116 0.265758 
0.361978 0.904877 0.0319703 0.342737 0.970674 0.051296 0.38067 0.880002 0.146342 
0.394045 0.846243 0.232037 0.344508 0.959587 0.260012 0.312976 1.04162 0.0387199 
0.388895 0.916198 0.0869327 0.446599 0.90042 0.110273 0.331379 0.998275 0.129648 
0.408647 0.91687 0.218434 0.30986 1.03908 0.265121 0.351476 0.930782 0.188055 
0.280528 1.10448 0.0481807 0.327454 0.98908 0.200292 0.286046 1.10959 0.260298 
0.256827 1.16469 0.0336646 0.355924 1.11802 0.105572 0.301221 1.07051 0.109753 
0.289477 1.25461 0.0382189 0.302303 1.04675 0.200323 0.282925 1.10205 0.172772 
0.332176 1.25783 0.0931767 0.383365 1.16016 0.0369352 0.274946 1.14993 0.110643 
0.420451 1.15212 0.10668 0.260067 1.15206 0.208906 0.339808 1.10877 0.211564 
0.218264 1.25716 0.0332144 0.318778 1.18848 0.0548019 0.319201 1.15846 0.17385 
0.24411 1.20056 0.164895 0.287625 1.1843 0.26484 0.238447 1.22364 0.0940451 
0.370634 1.23407 0.0356631 0.236163 1.23116 0.236842 0.215085 1.2582 0.149988 
0.540998 0.471071 0.03021 0.611317 0.296183 0.0940643 0.595096 0.359811 0.120441 
0.596686 0.348161 0.19656 0.575808 0.389588 0.266496 0.609599 0.31558 0.26129 
0.54022 0.471173 0.210031 0.508205 0.559083 0.219385 0.603212 0.329342 0.0358989 
0.566376 0.418249 0.159042 0.483029 0.626416 0.0390658 0.610304 0.477531 0.0478979 
0.5456 0.475903 0.0985311 0.549247 0.448921 0.268474 0.564756 0.573672 0.262774 
0.527014 0.513433 0.159496 0.549703 0.670095 0.0308565 0.444888 0.712686 0.0780519 
0.517298 0.698949 0.105568 0.470661 0.755195 0.178165 0.55038 0.549092 0.100674 
0.523483 0.660392 0.266704 0.445838 0.698173 0.1466 0.414097 0.77965 0.214263 
0.500692 0.682752 0.170824 0.553656 0.578563 0.168513 0.493536 0.782534 0.0916942 
0.534505 0.762612 0.146101 0.457483 0.816887 0.036374 0.508142 0.726463 0.0397528 
0.483834 0.819598 0.150706 0.43582 0.837155 0.113466 0.363702 0.896224 0.269731 
0.498692 0.771159 0.260787 0.538492 0.619443 0.219023 0.562745 0.749411 0.220361 
0.467561 0.81738 0.213626 0.505909 0.708099 0.227301 0.459797 0.891542 0.0403046 
0.520524 0.856254 0.0357953 0.534779 0.793367 0.0326217 0.454222 0.877749 0.177873 
0.494083 0.852239 0.09584 0.466059 0.871946 0.260664 0.438214 0.805962 0.269013 
0.416041 0.953355 0.0373637 0.373251 1.09168 0.0325885 0.465126 1.00634 0.0331277 
0.39959 0.999058 0.0943956 0.414319 0.950095 0.150094 0.46698 0.965713 0.0911246 
0.48559 0.94309 0.261112 0.419643 0.974304 0.261481 0.534831 0.985652 0.2689 
0.458544 0.955411 0.203007 0.382945 1.02686 0.0323973 0.365161 1.05743 0.0853379 
0.463252 1.03369 0.0904119 0.362278 1.06473 0.158632 0.394932 1.00624 0.196953 
0.441277 1.05241 0.264238 0.376668 1.03056 0.267348 0.4835 1.00583 0.235632 
0.455445 1.1384 0.0385401 0.470031 1.08483 0.123016 0.426727 1.0438 0.138753 
0.361257 1.09198 0.269156 0.52451 1.18141 0.176585 0.490401 1.10482 0.267884 
0.408005 1.08982 0.213068 0.429687 1.13499 0.26422 0.445133 1.12247 0.166626 
0.359158 1.1621 0.260112 0.509864 1.18891 0.0380837 0.497353 1.14891 0.121117 
0.435512 1.20821 0.0341933 0.368801 1.20405 0.10142 0.380812 1.13502 0.166232 
0.339024 1.23842 0.260952 0.452799 1.16964 0.207639 0.401854 1.20849 0.22076 
0.469549 1.19209 0.266121 0.486383 1.25693 0.0362708 0.311878 1.21414 0.137438 
0.459684 1.25078 0.226775 0.30008 1.21462 0.204171 0.472746 1.21474 0.169832 
0.372134 1.23182 0.163626 0.639641 0.231387 0.178557 0.564507 0.411864 0.0315353 
0.659962 0.193115 0.0553956 0.661304 0.287572 0.212663 0.639847 0.241892 0.26351 
0.668935 0.174471 0.206849 0.642897 0.223046 0.11476 0.632124 0.407857 0.0363386 
0.592689 0.424558 0.0894341 0.526708 0.510561 0.265844 0.604361 0.488885 0.262804 
0.617377 0.291106 0.158788 0.638736 0.37788 0.245358 0.613789 0.461049 0.137163 
0.586988 0.548131 0.0375182 0.660508 0.424518 0.102024 0.533507 0.637585 0.132296 
0.603662 0.529489 0.146514 0.574598 0.526244 0.211538 0.591864 0.434274 0.220414 
0.613205 0.625369 0.266298 0.603493 0.71992 0.0390327 0.555097 0.61154 0.0649785 
0.568646 0.73603 0.0983065 0.565872 0.699691 0.157151 0.599695 0.711503 0.268228 
0.590293 0.63584 0.174059 0.642739 0.642847 0.210757 0.57213 0.673467 0.224298 
0.596227 0.760474 0.15992 0.586492 0.667361 0.0962174 0.639723 0.789077 0.0390291 
0.561217 0.798337 0.0907704 0.541846 0.815399 0.189839 0.544932 0.8332 0.261831 
0.615709 0.776012 0.265249 0.516339 0.874781 0.210227 0.624977 0.710685 0.200335 
0.600375 0.823599 0.221562 0.58483 0.838316 0.0363757 0.560601 0.863173 0.0934317 
0.565255 0.912084 0.0397005 0.503045 0.945845 0.0315423 0.552078 0.910588 0.260438 
0.597989 0.968416 0.265549 0.527923 0.864138 0.146728 0.505375 0.925718 0.173801 
0.534632 1.0054 0.0510137 0.522363 0.918646 0.107629 0.473509 1.06068 0.188799 
0.467642 0.996917 0.154669 0.536767 0.990093 0.138922 0.517961 1.04826 0.269179 
0.571326 0.946347 0.192783 0.436189 1.06775 0.0347796 0.539934 1.12666 0.0335714 
0.573011 1.06642 0.0351733 0.503811 1.06732 0.0328707 0.552077 1.10865 0.0954083 
0.522609 1.05129 0.104986 0.543565 1.01021 0.209609 0.502583 1.12687 0.205543 
0.537777 1.23514 0.0890006 0.57353 1.21238 0.0322872 0.562709 1.17821 0.123656 
0.523192 1.09306 0.152487 0.60428 1.08853 0.268672 0.539252 1.23948 0.159038 
0.534034 1.21399 0.238307 0.565528 1.13245 0.180594 0.558424 1.07467 0.214305 
0.553946 1.13894 0.25917 0.639071 1.20822 0.043402 0.621017 1.21086 0.110716 
0.463923 1.21642 0.10067 0.647028 1.23788 0.221718 0.594929 1.20082 0.186389 
0.757787 1.18793 0.207885 0.679055 0.130701 0.0407764 0.693439 0.119202 0.112558 
0.721562 0.0321994 0.193012 0.681929 0.134456 0.265516 0.698152 0.0937551 0.18115 
0.636782 0.262735 0.0387347 0.694603 0.315759 0.0396725 0.702693 0.225271 0.149189 
0.704091 0.26714 0.267353 0.640368 0.406888 0.174833 0.694765 0.200231 0.267451 
0.678194 0.327805 0.266704 0.662314 0.337001 0.137913 0.680624 0.459516 0.0425432 
0.659113 0.495687 0.0972943 0.652408 0.358319 0.0778701 0.685836 0.467532 0.158473 
0.648713 0.462757 0.216749 0.680771 0.279045 0.104654 0.730813 0.433539 0.199542 
0.690688 0.353968 0.201217 0.611113 0.646214 0.0351643 0.662316 0.526338 0.0349396 
0.635016 0.558569 0.0889711 0.59518 0.600336 0.120127 0.647802 0.608865 0.156538 
0.663665 0.684641 0.262136 0.63775 0.547447 0.269081 0.6867 0.583242 0.20712 
0.616622 0.579335 0.20812 0.672045 0.548279 0.149852 0.677079 0.5171 0.206246 
0.62814 0.716479 0.122611 0.657944 0.65655 0.0910457 0.696819 0.573364 0.0971193 
0.708193 0.628717 0.138082 0.717111 0.648041 0.207027 0.660671 0.82427 0.268702 
0.664693 0.673057 0.159252 0.623837 0.803524 0.116748 0.647027 0.878057 0.0390987 
0.690132 0.763099 0.07976 0.707897 0.70421 0.0843921 0.679948 0.763948 0.149181 
0.636622 0.776931 0.203005 0.696553 0.716445 0.204713 0.61364 0.869939 0.265678 
0.582621 0.873496 0.181844 0.614678 0.971018 0.0372508 0.668624 0.985982 0.0762995 
0.628823 0.869704 0.105958 0.643099 0.928079 0.0890831 0.586907 0.910032 0.126317 
0.609889 0.968705 0.138948 0.633937 0.985727 0.209488 0.675766 0.850796 0.148012 
0.636013 0.923846 0.233822 0.643795 0.867383 0.206468 0.633399 0.918157 0.16915 
0.630527 1.10841 0.0300652 0.642004 1.04147 0.0403801 0.694554 1.09374 0.0358785 
0.573883 0.95827 0.0912935 0.593732 1.02253 0.0955032 0.667346 1.04345 0.115844 
0.57789 1.03155 0.260375 0.613355 1.02674 0.161716 0.67142 1.03256 0.184321 
0.616587 1.09103 0.091233 0.621404 1.14442 0.139074 0.696783 1.16665 0.0370852 
0.595839 1.15574 0.0661921 0.582834 1.08006 0.147212 0.623707 1.05701 0.217152 
0.741331 1.13321 0.0833203 0.636131 1.13376 0.223774 0.660959 1.09365 0.167474 
0.603818 1.19733 0.263609 0.749097 1.214 0.033559 0.791944 1.18436 0.101066 
0.689488 1.17042 0.106155 0.672506 1.19948 0.168347 0.6774 1.18866 0.260103 
0.722276 0.0832028 0.0341629 0.754241 0.122052 0.0763629 0.71829 0.0487769 0.117066 
0.784032 0.0584884 0.125042 0.723083 0.0423745 0.26252 0.734782 0.105716 0.241829 
0.707749 0.242341 0.0350578 0.750929 0.182082 0.0391989 0.768637 0.266028 0.0304513 
0.737305 0.177451 0.110591 0.728167 0.156822 0.173022 0.755536 0.167462 0.2634 
0.774202 0.230495 0.156209 0.769665 0.244316 0.262205 0.730656 0.210419 0.212492 
0.702993 0.391299 0.0363958 0.764262 0.327713 0.032027 0.720442 0.333296 0.103074 
0.746593 0.25281 0.0931085 0.732276 0.419187 0.0925061 0.764484 0.374302 0.126362 
0.703618 0.387161 0.140755 0.74763 0.320762 0.263464 0.734674 0.282546 0.198655 
0.69705 0.419795 0.260499 0.726516 0.514293 0.0856793 0.752924 0.463735 0.0378094 
0.797391 0.485951 0.0861166 0.754327 0.469528 0.133683 0.789433 0.420191 0.169465 
0.674177 0.494534 0.266635 0.803847 0.511424 0.264174 0.77402 0.402325 0.260577 
0.740151 0.481181 0.247389 0.717887 0.548765 0.263651 0.669112 0.59997 0.0391267 
0.69486 0.665332 0.0315337 0.736503 0.534349 0.17484 0.760963 0.582432 0.121079 
0.678567 0.614264 0.2674 0.752336 0.585459 0.217294 0.743105 0.622876 0.267491 
0.673502 0.724486 0.0330634 0.747618 0.749808 0.111291 0.758672 0.693238 0.038457 
0.72792 0.755364 0.0312088 0.749006 0.657181 0.0969755 0.73982 0.694423 0.261129 
0.687371 0.818173 0.208638 0.726196 0.69357 0.145904 0.750978 0.74571 0.178081 
0.693731 0.745557 0.269539 0.701986 0.934917 0.039981 0.716819 0.854563 0.0346145 
0.681165 0.826347 0.0846682 0.693901 0.88953 0.095785 0.739237 0.810821 0.159763 
0.739084 0.840083 0.260085 0.734268 0.777864 0.228234 0.681306 0.886634 0.265524 
0.713253 0.878481 0.206421 0.68767 0.951806 0.26891 0.717677 1.02176 0.0398204 
0.725193 1.07016 0.089719 0.726795 0.954927 0.107361 0.689532 0.949353 0.205711 
0.672024 0.976511 0.138584 0.693885 0.919358 0.151005 0.729821 1.01092 0.15583 
[...]
POINT_DATA 1274
FIELD FieldData 10
VELOCITY 3 1274 double
0.00048186773436 -0.00061640523411 -0.00028733528753 -0.0001156656844 -0.00062543281414 -0.00019804039474 0.00019316269497 -0.00046006850469 -8.4087214942e-06 
2.7472668243e-05 -0.0015055745081 0.0019926586437 0.00021692755283 -0.00071618582397 -0.00014521014778 0.0001905446616 -0.00034180871231 0.00038726951225 
0.00017299605839 -0.00052272123535 0.00061610981661 -0.00016254952646 -0.00065200918223 -1.4995504594e-05 0.00033681292804 -0.00076057125713 -0.00028583712567 
0.00048233616164 -0.00025311219207 0.00048452277079 0.00029097936988 -0.00075195142191 -0.00020170021825 0.00032558797308 -0.0006497946693 -0.00018709352962 
0.00031810443634 -0.00074378501148 -1.8901355896e-05 0.00055765551817 -0.0011177374456 0.00069952945157 0.0002301727675 -0.00063117177284 -3.0704645701e-05 
0.00017975702816 -0.00057018918906 -0.00037083970492 0.00020051147089 -0.00054696242766 0.00014696699633 0.00016220914637 -0.0013866300564 7.1169557013e-05 
0.0017787514537 -0.0017636040538 -0.00052945357489 0.00036890384675 -0.00031372651623 1.192276279e-05 0.00057424253655 -0.0010348864475 8.3058202661e-05 
0.00011881980006 -0.00057079396384 -0.00040130477915 0.00014754316977 -0.00027200629515 -0.00019707401786 0.00016311392971 -0.00029781107761 -0.00034003398641 
0.00051153585054 -0.0012458135342 0.00044248607625 0.00020478750222 -0.0003142213457 0.00026367319469 0.00016472044515 -0.00036525826893 3.1105941017e-05 
0.00054448480485 -0.0013206727684 9.1671152843e-07 0.00095240976328 -0.0010578967628 -0.00020437800047 0.00024858866101 -0.00049901412007 -0.00053798961702 
4.7504277172e-05 -0.0013844450111 -3.5599004547e-05 8.6725432688e-05 -0.00033143755957 1.6523866818e-05 0.00020563368303 -0.00045487111375 -0.00032640730267 
0.00109006079 -0.0019444566352 -0.00086617875239 0.00092372828648 -0.0011587644088 0.00031872696614 0.00014165998441 -0.00052042176381 -5.8362723436e-05 
0.0012869953303 -0.0014802542773 0.0001687368899 0.00020302490833 -0.00051008385366 -0.00023403246025 8.701508424e-07 -0.00085297663184 -0.00016022490848 
9.0705739382e-05 -0.0001871614909 3.3701336271e-05 0.00055209721789 -0.0013207986019 -0.0002965025722 0.00024970492397 -0.00090568952248 -0.00014439004811 
0.00020539689694 -0.00040999172888 -0.0002494582878 -7.6670188257e-05 -0.00038027534954 -6.5664709795e-06 0.000262875372 -0.00059570417668 -0.00032758966876 
0.0003948821849 -0.00094503735539 2.314864695e-05 0.00016682623686 -0.00041241288125 -0.00056089827313 0.00018616078002 -0.00045474212949 -0.00046002041531 
-0.0048489360651 0.0036399420144 9.3690070445e-06 -1.4919754553e-05 -0.00069795806653 7.8227665612e-05 0.00066543400024 -0.0007684369881 0.00037655116865 
-0.00038005560204 0.00016214403155 0.00069365616827 0.00016718473581 0.00090751530858 0.00079092548759 0.00038336898247 -0.0010147852683 0.00014379788128 
0.00032656965138 -0.00067015044143 0.00034812350189 0.00020139635263 -0.0003598094833 -0.00014978512246 0.00017846556622 -0.00040851961329 -5.4042016905e-06 
0.00026825948929 -0.00067755313427 0.00062112728259 0.00034931347758 -0.0008804314932 0.00013637920536 -0.00049604793054 -0.001056008302 0.00058911690774 
0.00047525667476 -0.00041204646762 0.00019154388364 0.00043486979353 -0.00061955004965 -0.00040319702542 -7.801129416e-06 -0.001364604619 8.0596920456e-05 
0.00015920031136 -0.0004784704397 -7.8183697594e-08 0.00054970110213 -0.00028022907878 -0.00018055438059 0.00014053154373 -0.00039922678283 0.00031565678438 
-0.00032988917541 -4.8722222979e-05 0.00040826406923 0.00086152293568 -0.00089578997713 0.00043025573248 0.00065807235684 -0.00044164405456 -0.00088884858104 
-0.00065415380736 -0.0010702520528 -5.3710977583e-05 4.8938070246e-06 0.0002379564886 0.00023968200957 0.00010914966395 -0.00072770901194 0.00010852359232 
-0.0001070755725 -0.0010813083652 -0.00015817539389 -0.00041757227694 -0.0006215194029 -0.00062551857441 0.00025995985958 -0.00082781846125 2.9475426834e-06 
1.6969271324e-05 -0.00019676347243 -0.00047563107198 0.00049699946576 -0.00083258751343 -2.0032195263e-05 0.00020533523631 -0.00079648567741 0.00012127727267 
0.00043186106972 -0.00046660576775 -1.4765350806e-05 0.00073885225786 -0.00045255869252 -0.00047366878436 0.00029683939566 -0.00063191797004 -1.5264451828e-05 
0.00012126133644 -3.788322112e-06 8.7885200359e-05 0.00063696703221 -0.00027227144451 -0.00057982554239 0.00018066433012 -0.0011286283908 -4.5532230859e-05 
-0.0016024417354 -0.00017347357862 -0.00075534070697 0.00019460988133 -0.00084600777009 0.00042095559313 -0.00018910499487 -0.00068463682387 7.9724643936e-05 
-0.0003052991403 -0.0011045440019 -0.00094018857598 0.00043201597467 -0.00083754095162 -0.00013470284863 0.00020521966923 -0.0005878569839 -0.00030924992948 
0.000335852307 -0.0006825265648 -0.00052286128292 -0.0019691190275 -0.00053615611217 -1.4055361497e-05 -0.00026637781508 -0.00063845716935 8.8344211292e-05 
0.00074905821992 -3.7452459152e-05 -4.7432160426e-05 -0.00014171953436 -0.0010844625312 -4.0970205412e-05 0.00014118389617 -0.00079544980854 -0.00011614253934 
0.00063412578043 -0.00084369039867 0.00028573129279 0.00060751514091 -0.00081929582799 0.0004843739715 0.0010755315856 -0.00026482057973 -2.556357763e-05 
-0.00045696942367 -0.00090187163367 0.00062823308662 -0.00024615495861 -0.0010517783997 0.00015846373587 -2.9511673992e-05 -0.001112631696 7.3961415516e-05 
0.0010583428152 -0.0018014293768 -0.00027136764199 0.00078633677058 -0.0014486137953 -4.8052097345e-05 0.00021684889815 -0.0011854209678 0.00020139700889 
-0.00060385957679 -0.00019717172631 -0.00035580834103 5.1420373879e-05 -0.00056916364124 -0.00019610734248 0.00026079684689 -0.0004254144622 -0.00015199547202 
0.00018410386992 -0.00049591103738 2.4287811087e-05 0.00016966637701 -0.00046488488392 0.00010952611175 -0.00036201958841 -0.00095635390095 0.00060320711505 
0.0010139573772 -0.00065860370194 -6.1494710415e-05 0.00091512549602 -0.0013511490823 0.00078506260463 0.00024539580944 -0.00069532575782 0.00063658285784 
-0.00011113098366 -0.00048480802508 1.9955158881e-05 -0.00068531648792 -0.0012761698248 -0.00071831455282 -0.00086263938456 -0.0012725096102 0.00097624844373 
-0.00044966255142 -0.00067686287544 0.00020144797285 -0.00024366920764 -0.00070733639385 2.09684461e-06 0.00039525513471 -0.00107831538 0.00055315102898 
-0.00024334109463 -0.00054796082834 8.0476630183e-06 0.00073331268873 -0.00022266288166 -0.00013870295191 0.0017555574937 -0.0018778953104 -0.0017162641656 
0.00047874110207 -0.00066835709659 -1.0431662272e-05 0.000738221072 -0.0020307615874 -0.00017881107593 0.00052843119494 -0.00050041782805 -0.00020365236985 
-0.00026120803986 -0.00060617696887 3.3979106851e-06 -0.0004480715921 -0.00089682060425 0.00020144875462 0.00094009683056 2.6731611319e-05 0.0021103882686 
-0.00056389671776 -0.0004665031732 -1.3494626957e-05 0.00015977143603 -0.0003973718532 9.8630371869e-05 0.00098987254799 -0.0010273383613 -8.6069613862e-05 
0.0012576974689 -7.3817915985e-05 0.00018783558061 0.0002298127689 -0.00078607246564 -0.00022515176669 -0.00056857521848 -0.00083510589124 0.00027796475528 
0.0014619901026 -0.0035563425301 0.00040670668091 -1.3612433639e-05 3.4817158213e-05 0.00066816570776 -0.00038084106858 0.00091829902867 -0.00029546451299 
-0.00022780075408 -0.00014248407288 0.00069509671194 0.00062015341895 -0.00069365217361 -0.00027456341567 -5.2046852687e-05 0.00037771048609 0.00079947005918 
0.00016124850155 -0.00011460964594 0.00028116341462 3.5524629191e-05 -0.00029628368916 0.0010175113702 -0.00019633613579 -0.0008254828625 -2.8664031608e-05 
-0.0014534254797 -0.0014759252163 -0.00053727301233 5.80603297e-05 -0.00026320766144 3.4397354784e-05 0.00063554066569 -0.0010553872722 -0.00020299370125 
-0.00019163911493 0.00029624418981 0.00039934694325 0.00036288946481 -0.0011310147468 0.00065953402935 -0.00028336407229 -0.00018677437275 -0.0015286604994 
0.00044236477819 -0.00094043802704 3.8593651115e-05 -0.00063488934229 -0.00076998200008 7.9828185899e-06 0.000914666006 -0.0002046183553 -0.0010612212186 
0.00044559631077 -0.00033506254595 0.0007240948491 0.00043620413259 -0.00080294448614 -0.00056495052776 0.00085412553274 -0.00043772032913 -0.00013658175023 
0.00039529140336 -0.0016266687924 -5.6636483468e-05 0.00017022481051 -0.00092408258064 5.2168749384e-05 -0.00027158898815 -0.00015795361033 0.00015697610407 
0.00092360378238 -0.00048782251974 0.00057118137821 0.00013541469983 -0.00067374385568 0.00059240305113 0.00033294211552 -0.00076763613588 -1.3388099104e-05 
0.00038805797555 -0.00060692928543 0.0002806363312 0.0006599760124 -0.0011139174068 -1.5003055087e-05 0.0001803382882 -0.0011857356345 0.0002864474103 
-0.00091658996272 0.00064177185953 0.00056546539364 0.00047841346351 -5.5704145605e-05 -0.00014817680125 -0.0006488271087 -0.00049451206537 -1.6794308884e-05 
1.2328911766e-05 -1.7467249312e-05 0.00022028130382 0.00026553327337 -0.00046268128841 4.3200982784e-05 0.00053782248595 -0.00046437953257 -6.379103057e-05 
-0.00019316135883 -0.0003891457309 9.1282744204e-06 7.7525904493e-06 -0.00075504845753 0.00030969086251 9.0236094915e-05 -0.00097411075031 0.00049542936783 
0.00043121030932 -0.00082694402692 0.00015325134084 -0.00015421164385 0.00013975209485 -0.0017328008008 0.00017623846697 -0.0015786433766 -0.00083128492601 
0.000918151064 -0.0020761399567 0.00011260667933 0.0010805329951 -0.0016372901585 -1.3331425631e-06 -0.00028157837695 -0.00012033011085 3.8109364644e-05 
0.00011492393535 -0.00050728931815 -9.4900167124e-05 0.00081791137523 -0.0009499628419 -0.00069162373153 0.00081468121505 -0.0013795659601 -0.0011636030665 
0.00091885373973 -0.0014371082373 -0.00020969159835 -0.00013171216369 -0.0016897378976 -0.0011009062632 0.00054537773796 -0.00074003777474 0.00076403652985 
0.0004552552271 -0.00048890959701 0.00040497586764 0.00030176489407 -0.00065302531325 -0.00085528319003 0.00012150154801 -0.00076709553041 -0.00016280382589 
-0.00069701943063 -0.0014582915516 -0.000677574199 0.00018471839313 -0.00056055996094 7.2644915793e-05 -0.0010892067413 -0.0011790307627 2.3100108641e-06 
-0.00034269526189 -0.00077179675547 -4.475018489e-05 0.00015925070419 -0.0015812778406 3.092521039e-05 0.0006169323769 -0.00089413753168 -9.5668003834e-05 
-0.00013358465593 -0.00079706619634 -0.00099879658079 -0.00030612867727 -0.001246596995 -0.00040098318097 -0.00021667033022 -0.00069884023372 0.0018104251921 
0.00018415557378 -2.3405928403e-05 1.999084764e-05 -0.00027960452886 -0.0014409381856 0.00010026293564 0.0011450275015 -0.00053784220914 -0.0015094505369 
-0.0011531978973 -0.00052484235699 -0.0011912998272 0.0010978997904 -0.00042720127906 0.00012575247534 -5.6377114384e-05 -0.0011325111984 0.00015010669192 
-0.00018578772336 -0.001643970628 -0.00021320178581 -0.0011148642663 -0.0018408252334 -0.00077787460204 -0.0023154623143 -0.00094761435548 0.00035369995036 
-0.00048802634135 -0.0017120839787 0.0024017097566 -0.00016334008832 -0.0016059831059 -0.00098462455107 0.0024860208751 -0.000934423868 -0.0003454585166 
0.00041663465904 -0.00098913250498 9.8054134332e-05 -0.050779229127 0.011004285289 0.060118545392 -0.00056220501173 -0.0021877456145 -8.6810300435e-05 
0.00029607511224 -0.0030445130013 0.0012585945217 -6.7708284633e-05 0.00011814582791 -0.00034550342229 -0.000206798809 0.00052916462276 0.00030829883363 
1.2049592655e-05 -0.00011829470927 -0.00042441507811 0.00012165921728 -0.00091466390441 -0.00049024989743 -0.00023051721051 0.00061843778086 0.00037128141157 
0.00079103775986 -0.00041235966564 0.00011523386778 0.00093042480883 -0.00011828462566 -5.3748257013e-07 -0.00027923736643 -2.0256263399e-05 0.00095631418073 
0.0001622941866 -0.00069795068084 -0.00084826137043 -0.00035531979216 -0.00046836226169 -0.00036173440931 -3.8655538522e-05 -0.00055134612939 -8.7462148317e-05 
0.0022355936445 0.00085692398453 0.00051044168747 -0.00039127650786 -0.0003800278593 -0.00010381843298 -0.00044137861564 -0.00092623240897 -0.00047419965089 
0.0001699634626 -0.00044763154231 -0.00032645286013 -0.00025920238594 -0.001105809701 -0.00027003488329 0.00058307148899 -0.0007324677584 -0.00043817549455 
0.00092037759198 -0.00087188825068 -2.1819822535e-05 0.00084954125733 -0.00059956206108 -0.00026746343879 0.00011720508834 -0.00089005646889 -6.4791498614e-05 
-0.00017669120213 -0.00029904681314 -0.00015899343953 0.00057048053446 -0.00057748145697 0.00021410651289 -0.0010566738092 -0.00084207726249 -3.0492832277e-05 
-0.0002646767591 -0.00053562246976 0.000875984082 0.00046219803523 -0.00029320178624 -0.00054352141942 0.0002099714871 -0.0014429652195 0.00027743813129 
-0.00023917981599 -0.00077391945563 3.6065247715e-05 0.00037634822425 -0.00089121676073 -9.3239876245e-06 0.00061938050169 -0.00093398214901 4.9279879847e-05 
0.00046658384136 -0.00090986187553 0.00039234717125 0.00068706254944 -0.0006528731081 -0.00018254902437 0.00086682717304 -0.00095340614731 -0.00011088246584 
-5.6697716227e-05 -0.0011625320864 0.00010117182407 0.00032591494626 -0.0011293353161 0.00034916259088 0.00037971894281 -0.0012312256613 -0.00044025741538 
4.8082700572e-05 -0.0011471674848 0.00062622069982 -0.00030442208577 -0.00053982831218 6.2284664526e-05 -1.8873858323e-05 -0.00075608912399 9.9960783923e-05 
0.0003745634414 -0.00087294549743 0.00043834868875 0.00035645747865 -0.00076016009478 8.6912946809e-05 0.0010017832866 -0.0017151225371 2.1678789934e-05 
-0.00045291084445 -0.00067062719741 -0.0004218071678 0.00027331377135 -0.0011220493154 0.00035825599541 -3.7525951595e-05 -0.0013622558315 -0.00030436526037 
2.8649477677e-05 -0.0013672368896 -0.00028602259816 -0.00012258230036 -0.00067017558309 0.00021443259232 -7.3273021763e-05 -0.00072789251079 -6.7986110821e-06 
0.00069622511798 -0.0012115698218 -0.0005235001689 5.5460931828e-05 -0.0012543005173 6.7222686028e-05 5.1921518648e-05 -0.0009038984707 0.00013272379207 
0.00087798618098 -0.00079050842481 0.00020638731127 0.00097776766529 -0.00087137522147 -0.00073400674535 -0.00018668451447 -0.001655355912 -0.00084670137117 
2.3466952393e-05 -0.00061992346447 0.00028334369924 0.0013284075919 0.00022038785871 0.00096058899602 0.0012910441934 -0.0009774777179 -2.7247054732e-05 
-0.00054440602624 -0.00073018361602 7.2652930106e-05 0.00066818999133 -0.00057611524595 -0.00021420154118 -0.00087318597893 -0.002262727854 -5.5694753962e-06 
-0.00085065475711 -0.0011356280285 -4.8402611338e-05 -0.00036447986912 -0.0010877848731 -0.00033182142137 -0.00062297966586 -0.0011070488763 -1.1529887758e-05 
0.00045623173006 -0.0017814247129 8.9729938626e-05 0.00053900074601 -0.0013612726727 0.00043426098022 0.00090496211627 -0.00093914691683 0.00010664539936 
0.00028327688298 -8.9290030958e-05 1.5932055467e-05 0.00055903716527 -0.00088562442642 0.0004070067309 0.0011618529584 -0.00065783474183 0.00011246059769 
0.00037317830837 -0.001461838521 7.7298763353e-05 0.00077975550791 -0.0010256827929 -0.00064444983808 0.00039719043763 -0.0010334723287 -2.1126177e-05 
0.00027112567446 -0.002123666354 -0.0014490200118 -0.0013693488027 -0.001995860761 -0.001092235954 0.00089907016022 -0.00013077053706 -4.1975734455e-05 
0.00050180781143 -0.0006217690524 0.00016889050187 -0.0011280863526 6.1892445311e-05 -0.00093499755781 0.00022540628759 -0.0009076645499 5.920732578e-05 
-0.0002587623406 -0.0017607928444 -8.1262606112e-05 0.00058064082129 -0.0012992470844 5.5818835623e-06 -0.0021569564298 -0.0015012198985 -0.00052294522409 
0.00012814971147 -0.00091699390061 -0.00010834315883 -0.00058874863162 -0.0011097849121 -0.00029588780112 -0.00023028757733 -0.0027438683465 0.0024713777105 
0.00066371380317 0.00050037752549 0.00019144574929 -0.0003365319511 -2.5874780721e-05 7.0877322693e-05 -0.00022161896086 0.00062721570489 0.00066476532895 
-0.0001311710341 -0.00076142067341 0.0011211406875 0.00041288790882 -0.0010658890922 9.6655997076e-06 0.00096221485967 0.00028665425541 0.001008228195 
-0.00040315376861 0.00026467265774 0.0015824532852 0.00039087885054 -0.00023101428625 -0.00043811677761 0.0013089514486 -3.5581960635e-05 -0.0013357472723 
-0.0004607711517 0.00047701836947 -0.00017659878274 -0.0002946192846 0.0003425980311 -0.0014684796517 0.000403876219 -0.00018956881709 -1.4166330825e-05 
-1.0483281821e-05 -0.00042105161776 -0.00083811739866 -6.1884977884e-05 -0.0012302720845 -0.00048472890742 0.00094501641481 -0.0011564312261 0.00021983734893 
-7.070965052e-05 2.9020156931e-05 -1.1515311582e-05 0.00093860564872 -0.00021866294066 -0.00084273742969 -0.00036446484495 0.00040859279044 0.00045761519263 
0.00075636964104 -0.00089317475215 -0.00054591957788 0.00022955865147 -0.0004334969218 2.2279811758e-05 -0.00013362847397 -0.00017988281487 0.00050159919018 
-0.0004075135321 0.00047759492003 0.00052794764301 0.0002507726837 -0.00056596378966 5.2222168051e-05 0.00015763025051 -0.0012336986925 -0.00026129420959 
-0.0001777501462 0.00035672734311 -2.3811012005e-05 0.00030507254802 -0.00058650211864 0.0011154250822 -0.00075742796899 -9.089538488e-05 0.00026467176988 
-0.0002379409128 -0.0015751428938 0.00039143285109 0.00081897776906 -0.00064700318803 0.00073069580665 0.0017373073464 -0.00084374418046 0.0011609111101 
0.00070599222041 -0.00046497142237 -2.0345377964e-05 0.00055040005779 -0.00033266669242 6.9947415406e-05 -0.00048317431993 -0.0015143917152 -0.00021491428352 
0.0005554980864 -0.0003302130015 -0.00063048744573 0.00048266547307 -0.00053787363781 1.0359210421e-05 0.00011325372558 -0.00091661629113 6.7098326069e-05 
-0.00017076112584 -0.00083936908413 0.00012399940726 0.00057697878552 -0.0012885282762 0.00037830028457 0.00015724597758 -0.00021474912121 0.00072971446898 
0.00045398447327 -0.00068400745521 -2.4651523513e-05 0.00052960384703 -5.5029987417e-06 -0.0010118739318 0.000590391913 -0.0012653671255 -7.6521392825e-06 
-0.00010834084641 -0.00045414188818 -0.00044879731934 0.00039508007697 -0.0010178752196 0.00063258679241 -0.0001065661898 -0.0011361844543 3.5763317372e-05 
1.5144893345e-05 -0.0018717587632 0.00015663749693 3.450677049e-05 -0.00055572419915 0.00030823444765 0.00036609482352 -0.0012688128446 -0.00033558441796 
0.00011360816858 -0.0011263541848 9.6438207962e-05 0.00023035047896 -0.0011151756407 0.00041337980843 0.0011326878286 -0.00063696725486 0.001018802806 
8.7602233484e-05 -0.00092800672721 1.1170516491e-06 -7.7738359124e-05 -0.00068444696115 2.0973158273e-05 0.00067243608199 -0.0013813671933 -4.7189682392e-06 
0.00025480691292 -0.001234944576 -0.00021206420144 0.00055476333928 -0.0015494862973 -0.00055612298423 -0.00058832116163 -0.0010009890755 -0.00034148343527 
-0.001067865207 -0.0016909414567 -4.5055178614e-05 -0.0010948912837 -0.0022312603294 0.0010175320125 0.00010729316853 -0.00069342971399 -0.00038065338074 
-0.00086479653583 -0.00047537621094 0.00089286519226 0.00085725754214 -0.00073934535088 3.5787927166e-05 -0.00031570809922 -0.0010269797513 -6.7152170044e-05 
0.00091511438408 -0.00083996703006 -0.00022474326334 -0.0038389768902 -0.019501266034 0.0069389343083 -9.9851482735e-05 -0.0020192821939 0.00013166043831 
-0.00010310667265 -0.00072840537874 0.00014388414399 -0.00078928022411 -0.00085829073965 -0.00028524429468 0.0017977489356 -0.0039205008708 -0.00011991469221 
0.00019630948499 -0.00059380061504 -4.0507254187e-05 0.00030970409106 -0.0018717814218 4.2918319239e-05 0.00024597461767 -0.0014004760746 0.00019015288215 
-0.00060523284099 -0.0017653985526 0.0029834767578 0.00058775220268 -0.0013270411122 1.686042698e-06 -0.0017996471896 -0.0029265893399 0.0015869026314 
0.00040143199201 -0.0011031614979 0.00010202971283 0.00020232296009 -0.00083156848788 4.3619289221e-06 0.00011924571304 -0.0015142622399 -0.00011497373277 
0.0016654945151 -0.0025529005575 -8.0426779396e-06 0.0016841647947 -0.001240761427 0.00016034453678 0.0025271243333 -0.0017814579114 0.00056103059969 
0.00036397928316 -0.0011847597635 5.9826857714e-05 0.0019376003327 -0.0013724698623 0.00041085470891 -0.0009454264946 -0.0042406451701 0.00011217952188 