# vtk DataFile Version 4.1
vtk output
ASCII
DATASET UNSTRUCTURED_GRID
POINTS 1274 float
0.51223 0.555678 0.0379507 0.469145 0.652097 0.105432 0.487313 0.599367 0.268458 
0.494384 0.588426 0.0994083 0.423221 0.75705 0.0323143 0.42409 0.769339 0.119171 
0.475227 0.638248 0.213078 0.459731 0.671381 0.268649 0.393224 0.846818 0.0593499 
0.398021 0.813688 0.164218 0.445311 0.700793 0.215204 0.432139 0.740443 0.265756 
0.362254 0.904207 0.03197 0.34305 0.969912 0.0515692 0.380861 0.879539 0.146348 
0.394295 0.845638 0.231909 0.344789 0.958905 0.260018 0.313305 1.04081 0.03872 
0.389516 0.915389 0.0867904 0.446964 0.900017 0.110198 0.331656 0.997603 0.129799 
0.408648 0.916333 0.218398 0.310002 1.03874 0.265121 0.351613 0.930453 0.18786 
0.280867 1.10365 0.0483505 0.327618 0.988682 0.200472 0.286188 1.10925 0.260298 
0.257089 1.16405 0.0336643 0.356347 1.11725 0.105048 0.301413 1.07005 0.109592 
0.289577 1.25375 0.0382188 0.302467 1.04635 0.200314 0.283117 1.10159 0.17261 
0.332588 1.257 0.0929306 0.383864 1.15939 0.0371754 0.275138 1.14946 0.110538 
0.420868 1.15135 0.106641 0.260264 1.15158 0.208767 0.339843 1.10815 0.211452 
0.218388 1.25686 0.0332147 0.319157 1.1877 0.0546259 0.31936 1.15792 0.173778 
0.244299 1.20011 0.164781 0.287538 1.18396 0.26484 0.23864 1.22317 0.0939295 
0.371041 1.23333 0.0356631 0.236271 1.2309 0.23661 0.215275 1.25774 0.149866 
0.540896 0.470755 0.0302095 0.611508 0.295714 0.0942521 0.595318 0.359274 0.120806 
0.596766 0.347962 0.196979 0.57592 0.389313 0.266497 0.609803 0.315088 0.261535 
0.54045 0.470613 0.209901 0.508324 0.558794 0.219363 0.603292 0.329146 0.0358989 
0.566568 0.417784 0.159269 0.483295 0.625769 0.0390637 0.609932 0.476741 0.0480849 
0.545744 0.475558 0.0985147 0.549359 0.448649 0.268473 0.564959 0.572985 0.262774 
0.527177 0.513038 0.159519 0.55018 0.669761 0.0308583 0.445057 0.712279 0.0782791 
0.517324 0.698626 0.105991 0.470951 0.754695 0.178145 0.550682 0.548739 0.10074 
0.523326 0.659834 0.266703 0.445985 0.697812 0.146442 0.414359 0.779008 0.214289 
0.500825 0.682155 0.170545 0.553871 0.578149 0.168529 0.493735 0.781839 0.0918131 
0.534843 0.762047 0.146164 0.457877 0.816205 0.0363746 0.508223 0.725844 0.0397547 
0.484048 0.819117 0.150696 0.436167 0.836751 0.113321 0.363983 0.895541 0.269731 
0.498929 0.770593 0.260787 0.538519 0.618792 0.219168 0.562955 0.748881 0.220295 
0.467423 0.816906 0.213527 0.50617 0.707466 0.227027 0.459796 0.890878 0.0401936 
0.520416 0.855405 0.0356969 0.535175 0.792626 0.0326227 0.454123 0.877146 0.177784 
0.494471 0.851562 0.095604 0.465419 0.871371 0.260664 0.438316 0.805309 0.269011 
0.416381 0.952935 0.0373622 0.37333 1.091 0.0325886 0.465479 1.00589 0.0331285 
0.399917 0.998317 0.0946366 0.414808 0.949472 0.150394 0.467458 0.965305 0.0911511 
0.485416 0.942383 0.261559 0.419543 0.973761 0.26148 0.534886 0.984891 0.2689 
0.459175 0.954036 0.202949 0.383379 1.02592 0.0323972 0.365257 1.05649 0.085178 
0.463391 1.03327 0.0903959 0.362462 1.06423 0.158479 0.395096 1.0058 0.196902 
0.441405 1.05203 0.264238 0.3768 1.03017 0.267487 0.483376 1.00505 0.235903 
0.455979 1.13773 0.0385399 0.470371 1.08423 0.123235 0.426969 1.04325 0.138842 
0.361133 1.09154 0.269156 0.525315 1.18036 0.176148 0.490029 1.10388 0.267816 
0.407926 1.08933 0.213132 0.429584 1.13459 0.264219 0.445296 1.12174 0.166716 
0.35904 1.16166 0.260112 0.510371 1.18827 0.0382237 0.498166 1.14797 0.11875 
0.435936 1.20751 0.0341936 0.369161 1.2032 0.101286 0.381009 1.13447 0.166503 
0.338961 1.23799 0.260951 0.453069 1.16897 0.207639 0.402124 1.20778 0.22087 
0.46932 1.19178 0.266121 0.486789 1.25625 0.0362705 0.312179 1.21358 0.137404 
0.459894 1.25023 0.226322 0.300197 1.21406 0.204105 0.473565 1.21379 0.169783 
0.372575 1.23086 0.163541 0.639646 0.231375 0.179035 0.564258 0.412469 0.0315356 
0.659989 0.193055 0.0559505 0.661511 0.287214 0.212733 0.640017 0.241477 0.26351 
0.669009 0.174292 0.206908 0.642866 0.223143 0.115222 0.631781 0.407106 0.0363449 
0.592492 0.423874 0.0895307 0.52682 0.51029 0.265843 0.604871 0.488054 0.262771 
0.617414 0.291018 0.159016 0.638961 0.377694 0.245643 0.613654 0.46072 0.136957 
0.587254 0.54752 0.0375169 0.660367 0.424143 0.101854 0.533789 0.637066 0.132105 
0.604004 0.529193 0.14656 0.575061 0.525528 0.211617 0.592243 0.433992 0.220511 
0.613316 0.624767 0.2663 0.603518 0.71921 0.0390305 0.555228 0.611074 0.0648141 
0.568961 0.735244 0.0984911 0.566139 0.698997 0.157397 0.599777 0.71092 0.268227 
0.590799 0.635222 0.174256 0.643326 0.641885 0.210904 0.572072 0.672875 0.224391 
0.59658 0.759743 0.159898 0.58671 0.666985 0.0960564 0.639411 0.788541 0.0390311 
0.561351 0.797916 0.0908625 0.54193 0.814896 0.189853 0.545108 0.832681 0.261834 
0.615901 0.775402 0.265251 0.515914 0.873888 0.210733 0.625173 0.709907 0.200698 
0.600505 0.822687 0.221596 0.584833 0.838074 0.0355149 0.560687 0.861844 0.0930684 
0.56564 0.910832 0.0397004 0.503542 0.9448 0.031543 0.552003 0.910093 0.260436 
0.598079 0.96779 0.265549 0.528272 0.863502 0.146508 0.505658 0.924628 0.172909 
0.534944 1.00443 0.0510987 0.522455 0.917465 0.106698 0.473542 1.05998 0.189128 
0.468167 0.996268 0.154826 0.537115 0.989385 0.138347 0.518037 1.04753 0.269179 
0.57094 0.94532 0.192414 0.436319 1.0672 0.0347794 0.539091 1.12539 0.0335715 
0.573008 1.06562 0.0351735 0.503936 1.06623 0.0328709 0.552175 1.10821 0.09545 
0.522853 1.05073 0.10471 0.543209 1.00918 0.20931 0.502854 1.12621 0.205281 
0.538127 1.23472 0.0890179 0.573836 1.21194 0.0322878 0.563271 1.17761 0.123196 
0.522969 1.09228 0.152398 0.604609 1.08784 0.268671 0.539584 1.23869 0.159078 
0.533977 1.21283 0.238055 0.566031 1.13117 0.18055 0.557559 1.07372 0.214488 
0.553745 1.13776 0.259467 0.639414 1.20779 0.0431791 0.621596 1.21034 0.110559 
0.464368 1.21563 0.100673 0.647374 1.23673 0.221411 0.595069 1.19971 0.186359 
0.764197 1.18015 0.20641 0.67901 0.130815 0.0404889 0.693282 0.119579 0.112877 
0.721563 0.0322021 0.192835 0.68203 0.134209 0.265518 0.697961 0.0942179 0.181504 
0.636976 0.262595 0.038733 0.695225 0.315591 0.0396742 0.702526 0.225078 0.149913 
0.704238 0.266787 0.267353 0.640305 0.406516 0.174517 0.69504 0.199952 0.267451 
0.678391 0.327476 0.266699 0.66266 0.336434 0.137761 0.680324 0.45878 0.0421085 
0.659008 0.495314 0.0971134 0.652228 0.35749 0.0777107 0.685811 0.467156 0.158258 
0.649233 0.462189 0.216857 0.681407 0.278573 0.10449 0.728047 0.412437 0.195533 
0.690608 0.353716 0.201177 0.611459 0.645537 0.0351626 0.661842 0.525602 0.0349399 
0.635174 0.558326 0.0889924 0.595227 0.600056 0.120061 0.647837 0.607893 0.156643 
0.663766 0.684102 0.262133 0.63786 0.546839 0.269081 0.686832 0.582785 0.207158 
0.616762 0.578897 0.208589 0.672518 0.547478 0.150016 0.677359 0.516623 0.206192 
0.628513 0.715778 0.12256 0.65808 0.655438 0.091358 0.696996 0.572922 0.0973151 
0.708301 0.627856 0.138549 0.717234 0.647587 0.206877 0.660766 0.823748 0.268702 
0.664903 0.67243 0.159441 0.623985 0.803016 0.116823 0.647431 0.877111 0.0391001 
0.689607 0.761821 0.0795486 0.70798 0.703171 0.084822 0.680072 0.763237 0.149055 
0.636929 0.776149 0.203044 0.696738 0.716018 0.204814 0.613475 0.869147 0.265677 
0.582959 0.872549 0.181726 0.61482 0.969969 0.0372509 0.668609 0.985259 0.0763926 
0.629696 0.869156 0.106136 0.643573 0.927475 0.0887443 0.586829 0.908761 0.125929 
0.609961 0.967893 0.138998 0.634346 0.985112 0.209696 0.676665 0.8498 0.147957 
0.635876 0.923096 0.233728 0.643764 0.866253 0.207203 0.632998 0.916811 0.169124 
0.630455 1.10778 0.0300649 0.641959 1.0405 0.0401202 0.69443 1.09287 0.0358785 
0.574398 0.95726 0.0910547 0.594062 1.02156 0.0955667 0.667533 1.04282 0.115804 
0.57801 1.03094 0.260453 0.613668 1.0259 0.161776 0.671765 1.03185 0.184261 
0.616562 1.09017 0.0911779 0.621939 1.1438 0.138684 0.696832 1.16578 0.0370848 
0.595962 1.15432 0.0646243 0.582458 1.07871 0.146847 0.62402 1.05638 0.217103 
0.741262 1.13245 0.0835058 0.636005 1.13321 0.223594 0.661055 1.09293 0.167512 
0.603662 1.19615 0.263609 0.749168 1.2131 0.033559 0.790583 1.1829 0.100887 
0.689486 1.16988 0.106131 0.672663 1.19895 0.168356 0.677296 1.18778 0.260476 
0.722096 0.08315 0.0341642 0.753983 0.12194 0.0764783 0.718122 0.0491813 0.117835 
0.783989 0.058123 0.125651 0.723356 0.0417122 0.262519 0.73512 0.105287 0.242601 
0.707771 0.242065 0.0350585 0.751104 0.181918 0.039199 0.768635 0.265826 0.0304525 
0.737093 0.177853 0.110552 0.728041 0.156565 0.172774 0.755857 0.167272 0.2634 
0.774157 0.230311 0.155668 0.769661 0.243576 0.261975 0.731369 0.20977 0.212712 
0.702935 0.391203 0.0363959 0.764817 0.327564 0.0314675 0.720264 0.33342 0.103315 
0.747139 0.25216 0.0928212 0.732452 0.418842 0.0925068 0.764459 0.374111 0.126755 
0.703576 0.387206 0.140883 0.747819 0.320374 0.263464 0.734751 0.281798 0.198198 
0.697022 0.42006 0.260496 0.726605 0.513719 0.0863297 0.752615 0.463575 0.0378106 
0.797234 0.485009 0.0863371 0.754605 0.469063 0.134328 0.789799 0.419686 0.169969 
0.674646 0.494174 0.266634 0.804007 0.51152 0.264171 0.773716 0.401413 0.260577 
0.740536 0.481057 0.246944 0.71822 0.548515 0.263651 0.669356 0.599164 0.0391266 
0.694534 0.664741 0.0315326 0.736911 0.533546 0.175169 0.761138 0.581711 0.121375 
0.678716 0.613886 0.2674 0.752518 0.585288 0.216936 0.743291 0.622222 0.267491 
0.673492 0.724008 0.0329014 0.747806 0.748931 0.111639 0.75843 0.692448 0.0384673 
0.727843 0.755011 0.031209 0.748607 0.656328 0.0969476 0.74002 0.693755 0.261127 
0.687706 0.817346 0.208778 0.726541 0.69265 0.146277 0.751292 0.745284 0.178449 
0.693989 0.74494 0.269539 0.702042 0.934305 0.0399817 0.717193 0.853631 0.0346115 
0.681355 0.825419 0.0845317 0.694121 0.888613 0.09556 0.739341 0.810169 0.159477 
0.738649 0.839053 0.260086 0.73384 0.776457 0.228971 0.681309 0.886142 0.265524 
0.713032 0.877892 0.206637 0.687966 0.951285 0.268911 0.717669 1.02093 0.0398204 
0.725512 1.06927 0.0897183 0.727134 0.9533 0.107551 0.689457 0.948027 0.205738 
0.672067 0.975933 0.138695 0.693397 0.918507 0.150742 0.730364 1.00969 0.155537 
[...]
POINT_DATA 1274
FIELD FieldData 10
VELOCITY 3 1274 double
0.00052103865763 -0.00080620632455 -0.00037191847554 2.3178904914e-05 -0.00097260684932 -0.00046397436065 0.00025673919945 -0.00066840691425 1.1874131035e-05 
0.00043709059217 -0.0014200405249 0.0012248579621 0.00028912721543 -0.00099330193741 -0.00019064196175 0.00040583395093 -0.00056402104202 9.4202387876e-05 
0.00021529358684 -0.00064603367567 -0.00019647104192 -0.00057744374285 -0.0011773630242 -6.6054038204e-05 0.00058770011816 -0.0014312209938 -0.00040780235487 
0.0001841253372 -0.00069642792132 0.00038514782701 0.00039574715778 -0.00089881413511 -0.00014036355681 0.00042154804038 -0.0011165341621 2.5305875148e-05 
0.00049421766589 -0.0013012593161 -2.1707987836e-05 0.00065289452508 -0.0014300529653 0.00019728129792 0.0003595473807 -0.00072814213729 -6.7223380408e-05 
0.00038282462464 -0.00090363291006 8.4315706805e-05 0.00036057692482 -0.00086553110513 2.3854643038e-05 0.00058233868861 -0.0014232682657 2.8920206319e-05 
0.00092127410949 -0.001309725615 -0.00023220008449 0.0010716535335 -0.0006707448812 -2.6886713005e-05 0.00046340756463 -0.0010713819776 4.8035628979e-05 
0.00018592707317 -0.00078507456299 -0.00016074791613 0.00020998724413 -0.00050453041329 0.00021299640725 0.00025298237286 -0.00064589273296 -9.7099849081e-05 
0.00059205545892 -0.0014583747603 0.00028330199574 0.0002154321897 -0.0006698214412 0.00015603956837 0.0002154554872 -0.00050676230339 -3.4069107648e-05 
0.00046597574441 -0.0011071204636 1.2484812873e-05 0.00077146564996 -0.001287659628 -0.00068631154179 0.00034964937995 -0.00077384780621 -0.00057873829469 
0.00015870202506 -0.0013669133313 1.4204252895e-05 0.0002996332444 -0.00064563117907 -1.6758952126e-05 0.0003264900108 -0.0007994171321 -0.00031110365115 
0.00064173049094 -0.0013778242502 -0.0004108824355 0.00089662443848 -0.00094108533376 0.00041893741764 0.00034357682484 -0.00081924986116 -0.00015220472021 
0.0006328313382 -0.0012688233399 -3.4271069213e-05 0.00032702011861 -0.00078430111598 -0.00029644362872 8.2360239751e-05 -0.00095229870506 -0.00014609211681 
0.00018820278733 -0.00047008143965 -2.7945207727e-05 0.00060856380332 -0.0012654551447 -0.00035660473064 7.129868074e-05 -0.00086276284098 -2.3293566126e-06 
0.00028909088534 -0.00075591060804 -0.00026529614341 -9.611576907e-05 -0.00049187149669 -4.3194601152e-06 0.00035776340681 -0.00082417588597 -0.00026724663191 
0.00088277097278 -0.0014454031611 1.2816305672e-05 0.00015351894901 -0.00037906696555 -0.00020195645276 0.00031483441591 -0.00076885167317 -0.00034774475473 
0.0045085114878 -0.0046156325216 -5.0466239877e-05 0.0014284158042 -0.00055657749537 0.000372005979 -0.00028288285913 -0.00063772274526 0.00054338628581 
0.0005281705462 -0.00073286782002 0.00052786169293 0.00030559139732 -0.0016515273252 -0.00074457624497 0.0003254153844 -0.0010901382834 0.00027409610826 
0.00025616044039 -0.00055810616904 0.0005656855896 0.00029465864567 -0.00048153711477 1.0032800985e-05 0.00013183118251 -0.00028551450577 4.8599721045e-08 
0.00028908765251 -0.00074653414018 1.3218079161e-05 0.00042934055172 -0.0011374266447 -0.00057451959812 -0.00058540497578 -0.0012713187032 -0.00020690860426 
-0.00023229802487 -0.00073803376074 0.00039664663184 0.00054780486936 -0.00056946989862 7.3020065556e-05 1.3597884349e-05 -0.0011920745143 7.7451022897e-05 
0.0001602543889 -0.00061503161751 -4.7415284947e-05 0.00086594944539 -0.00066750100451 -6.7477706129e-05 0.00020358470023 -0.00032390874174 0.00061521787165 
0.00031366168221 -0.00077211803352 0.00085689892704 0.00052227645233 -0.00085548822133 6.786798098e-05 0.00068111020466 -0.00051630056129 -0.00017803506537 
-0.00082198805383 -0.0015799117248 -7.3195337235e-06 0.00035354654356 -0.00063315725671 -0.00020343988679 0.00031678678412 -0.00087880435395 0.00012992178273 
0.0001535104347 -0.0010473416615 -0.00043397546305 0.00065278921118 -0.00080859005853 4.9602795904e-05 0.00017233018595 -0.0010413274683 1.3462985403e-05 
0.00095636660843 -0.0020153202701 0.0010017585471 0.00090033157653 -0.0012509477166 -3.9804035413e-05 0.00039705387579 -0.0012530923249 9.5253895064e-05 
0.00067923520231 -0.0010062297969 0.00027064139603 0.00011035569502 -0.00056179620304 -0.00019048691734 0.00034458317372 -0.00087867062227 -2.7153375915e-05 
0.00033237445896 -0.00091385371862 -0.00012546804078 0.00068602804193 -0.00029082824717 -0.00036499355201 0.00055139177264 -0.0012983509582 -0.00010435985434 
-0.00012140025489 -0.00061072617022 -0.00035473657074 0.0003417147717 -0.00090530507149 5.1371710517e-05 0.00024453593022 -0.0011957625942 9.9538903783e-05 
0.00014673536401 -0.0012711542735 -0.00080485159087 0.00031983962408 -0.0012961664779 -1.3468507346e-05 -0.00019335518316 -0.0010895192905 -0.00011817072527 
0.00075708064814 -0.0012620728282 -0.00017594765171 -0.00042801573195 -0.00094299664731 1.2275233078e-05 0.00035805925068 -0.0010849969006 2.4879643503e-05 
0.00071746735986 -0.00083849453765 1.3070379001e-05 0.00035896189142 -0.00090194617945 -2.0956532399e-05 0.00066684896389 -0.00068273903052 0.00013799194299 
0.0004710084342 -0.0011379481545 0.00020931523925 0.00067478602208 -0.00092730930687 0.00036498967232 0.00063077355018 -0.00078653778381 1.1681187425e-05 
-9.0945205866e-05 -0.00099570909442 0.00088348086393 -0.00021088143642 -0.0010326917555 0.0001400939421 0.00020335170554 -0.00092046477771 -8.6221344559e-05 
0.00093105605446 -0.0018556156893 0.00028761469202 0.00069057999909 -0.0015107075218 -3.8761177741e-06 0.00014036778407 -0.0014308188603 -0.00039032409772 
0.00026904515087 -0.00066100774978 -5.2321527544e-05 0.00011233068234 -0.00090881196447 -5.4728810285e-06 0.0003267263208 -0.00078147397675 -8.54023946e-05 
0.00019061242509 -0.00051524287437 8.4213741227e-06 0.00025957051003 -0.00065117479627 -0.00029262630768 -0.00050202282819 -0.0011338563908 0.00073166039004 
0.00092879734868 -0.0010525223097 3.3156198044e-05 -0.00020308633342 -0.00036029264593 -0.00051827344581 9.3312559112e-05 -0.00056353531474 -9.1801022453e-05 
-0.00020773680987 -0.00081905321014 1.0884613019e-05 0.0016831568609 -0.0015907736141 -0.00097850086241 -0.00024711518893 -0.0011168451695 -8.8780270201e-06 
-0.00022298563881 -0.00082068846145 0.00019866087668 -8.943275997e-05 -0.00064971626166 -2.654913557e-05 2.5786851043e-05 -0.0011510799458 0.00027402770373 
-0.00016458574066 -0.00079968571156 6.9395275233e-05 0.0011426748452 -0.0014100320236 0.00054709814 0.00053405842224 -0.00059727662917 0.0012167782381 
0.001020669022 -0.0010859084359 -3.6818574623e-05 0.00051667114674 -0.0014001476255 -0.0001313596336 7.2189791165e-05 -0.00085462211864 -8.8025722881e-05 
-9.3237490838e-05 -0.00079375112103 -5.3521863336e-06 0.00016691335374 -0.00097142536415 -5.5280699607e-05 0.00039943344632 -0.0010320286719 0.0003687088042 
-1.600294363e-05 -0.00054063076186 -5.4073525915e-05 0.0012901130749 -0.0013593411157 -2.6823557932e-05 0.00030519718855 -0.0008714319655 -6.1101625877e-05 
0.00040438000191 -0.00097520836499 -0.00074489721506 0.00011748928359 -0.00080141712154 -0.00012329497485 0.0015365055256 -0.0016964346133 -1.2575917916e-05 
0.00053126976589 -0.001684057257 5.1928647447e-06 -0.00012151293957 0.00022435734643 0.0007988301375 -0.00030332418443 0.00088108579839 -0.00027367744587 
-3.4856889403e-05 -0.00010481845586 0.0007972282129 0.00038873663504 -0.00079013376925 -8.3008298654e-05 3.670053862e-05 0.00029122956876 0.0008127991406 
0.0001097945357 2.4050044595e-05 0.00017591092063 -1.2139178957e-05 -0.00019467990921 0.00097512634654 -0.0018950573648 -0.0016288242435 7.0211436375e-05 
0.00094838879895 -0.00029436632137 8.8686718632e-05 0.0001876636349 -0.00052248434578 -8.7644088246e-06 0.00078649149985 -0.0013203370902 -0.00011534461214 
-0.00041493577156 0.00038467088804 0.00042340066507 0.00027704007513 -0.0001655488854 0.0015147176137 -0.00071499149441 -0.00071241962529 -0.00041133616709 
0.00055914860095 -0.0010681872227 -3.7815732849e-05 0.00028312452665 2.9595450817e-05 -0.00020452122882 0.0007617636609 -0.0012327528404 -0.00013227512353 
0.0007751919538 -0.00094358372043 0.0010425662157 0.00072507009259 -0.00090231996465 -0.00026776873026 0.00061955396158 -0.00052590557093 0.00011759232378 
0.00019420193972 -0.001280966247 -7.9446398212e-05 0.00033417973503 -0.0016234983295 0.00013906932395 -0.00010803318959 -0.00052984141006 0.00046634880326 
0.00014482912647 -0.00011930805755 -0.00058438161641 0.00041222674387 -0.001114710303 0.00017170234147 5.9436125487e-05 -0.00093959815691 9.4845454662e-05 
0.0006871404986 -0.00092835888983 5.476382767e-05 0.00057843402812 -0.00090706371286 -3.8771576936e-05 -0.00031436457124 -0.0008750693992 0.00012424299464 
-0.00084916563228 0.00011502463405 0.00030430064127 0.00032553123235 -0.00099465960322 -8.0626080971e-05 -0.0002000644099 -0.0011846914745 5.5757896231e-05 
0.00032938993476 -0.0013215599187 0.00012439692339 -0.00077052537963 -0.00090946605666 -7.7742107703e-05 3.7996009234e-05 -0.00085387641174 -0.00010895474522 
-0.00032786098717 -0.00030960450407 2.5682601694e-05 -0.00032264692298 -0.0010783325102 0.00022593749147 0.00011736019422 -0.0012074441265 0.00041402832802 
-7.125836292e-05 -0.0016403068398 -0.00018884951586 0.00020980268608 -0.00084394670135 -0.00043960435289 5.9899208968e-05 -0.0021512821604 3.149593457e-05 
0.00039267958349 -0.0016771501327 -5.0394097829e-05 0.00034587169218 -0.0012502682846 -0.00014463672927 8.6058143586e-05 -0.00081472507504 -2.2673450884e-05 
0.00027557672184 -0.00088588681099 0.00018975298804 0.00010029722705 -0.00082761257284 -9.7836856858e-05 0.00015567749296 -0.0015737238417 -0.0012406907506 
0.00043475169508 -0.0014161557471 0.00030123164197 0.00025170386192 -0.0016924080467 -0.0009917405303 -4.0706975488e-05 -0.0010913191805 0.00038409484046 
0.00078047811501 -0.0010086808895 0.00013983628565 0.0006709141854 -0.00068986566354 -0.00080471046737 0.0001257704125 -0.0010121734506 -2.1389774588e-05 
-0.0003213705947 -0.00067519165948 -1.9751419842e-05 0.00013951016102 -0.00095393081004 -0.0002871243321 -0.0054811342411 -0.0043955231274 1.0105452385e-05 
0.00016206547911 -0.0012472348916 -4.4827941499e-05 0.00026418872946 -0.0015555396492 -1.7738850297e-05 -1.6300924258e-06 -0.00046737918467 -0.00010569579081 
0.00037955418682 -0.00074391153766 -0.00050045349655 -0.00052003814859 -0.0008525467312 -0.0002182914301 0.00069353411474 -0.0011702647897 -0.00082553905806 
0.00065418434062 -0.001000314275 0.00033428005588 0.00067887104331 -0.00029561402395 2.4560809574e-06 0.00081433434135 -0.0010869115142 0.00010854023285 
-0.0003507435702 -0.0014338241391 0.00013873809443 0.00041588618695 -0.00085945710413 5.6756178767e-05 0.00063087103288 -0.00098758207721 0.00032867588654 
5.6419052031e-05 -0.00151791553 -0.00055637013815 0.0016383475618 -0.0015526167051 3.1219390984e-05 -0.00091101279202 -0.00079900132553 0.00048745088882 
-0.00010269256741 -0.0013185719272 -3.0179839357e-06 0.00070211590728 -0.00040327494774 -0.0001996392458 0.0005482820546 -0.00076082550907 -0.00014013442059 
0.00063866611132 -0.0010858472794 0.00011988419926 0.00056463769391 -0.0011004284285 0.00018552732755 0.00067863704953 -0.0011565394231 -5.936306418e-05 
0.15994895012 -0.197533641 -0.037966880491 -0.0001072466948 0.00020675452265 -0.00043037077767 -0.00033646879329 0.00078028873708 0.0006441499834 
-2.3981154448e-05 3.0983982206e-05 0.00014073391958 -6.9958935379e-05 -0.00098007703728 -0.00043024539021 -0.00045130825231 0.00092295684192 0.00083981015605 
-0.00061627473649 -0.00071123565297 -3.3552387729e-05 0.00063334270779 -0.00048087429942 -4.8624665942e-05 -0.00023552373319 -0.00012084302325 0.001207971343 
0.00023335900654 -0.00064861884829 -0.0002783790674 -0.00011755079563 -0.00049978435373 -0.00048278339316 -4.0005493642e-05 -0.00033982983055 -4.4434526895e-05 
0.0020323877663 0.00063483403184 0.00038982968353 -0.00031714897213 -0.00072334387071 -0.00015813245276 -0.00037256890179 -0.0014086877765 -0.0009246674516 
-0.00015631456876 -0.00067342572992 -0.00058032241658 0.00063919523134 -0.0009012786581 -0.00020894866953 -6.4817276614e-05 -0.00065334919695 -0.00034360006848 
0.00081976291048 -0.0010067985135 0.00021434460756 0.0007500987184 -0.00070326125729 -0.00026569727238 0.011622874212 -0.0052588224076 0.026474025081 
-7.6388434745e-05 -0.00033883745518 -7.3234413416e-05 0.00047314443086 -0.0016219879757 -5.5152487456e-05 -0.00019271677375 -0.0013185670032 -0.00014196088612 
-7.6486372821e-05 -0.00039638867478 0.00064096470382 0.0005654618129 -0.00088105773266 -0.00039206357242 0.00038770334391 -0.0017077962945 0.00058281282049 
2.1721288436e-05 -0.00089674742029 -1.77953084e-06 0.00030057551545 -0.0011089812212 -1.4360809349e-06 0.0001523838611 -0.00085208166514 0.00018855081323 
0.00022917729453 -0.00063913009027 0.00066638729028 0.00095476250929 -0.00075411067821 -0.00010231691702 0.00028853337919 -0.00085967843587 2.8231996365e-07 
0.00046415605509 -0.0013006302922 0.0001708460933 0.00039366797809 -0.0015498930245 0.00016758438097 0.00082288263227 -0.0013106841962 -0.00043468717383 
0.00021750980548 -0.0015648389643 0.00053099172324 0.00017926399324 -0.00080673908609 -0.00034673703874 0.00035694650702 -0.00096118371057 0.00018017940195 
0.00043848955478 -0.0011254529881 0.00011697256865 0.00065877125839 -0.0011681147429 -1.0269698279e-05 0.00028275993183 -0.0011816013077 9.7817223279e-05 
0.00022634269714 -0.00055538611095 -0.00013920021822 0.00017520218565 -0.0012083684588 0.0008245142475 0.00029178858071 -0.0015418140016 -0.0002083781985 
0.00060295371648 -0.0013646306066 0.00020639057113 0.00032056000003 -0.00011980675667 0.00029817218655 -0.00070325364475 -0.0017390891614 -1.5196446234e-05 
-0.00016626581041 -0.0010511234943 0.00087601430577 2.1329185067e-05 -0.0014079979882 7.8656044432e-05 5.5694174947e-05 -0.0010526706622 3.738615812e-05 
0.00084116760563 -0.00086113562407 0.00013410802347 0.00055443035348 -0.00093611802401 -0.00019603412093 9.6985995791e-05 -0.0014908875443 -0.00055839172611 
0.00018687899385 -0.0014536144762 -0.00023016550221 0.0006388062057 -0.0010424843948 9.7390397501e-05 0.0010876642225 -0.0016911049575 -0.00012051775105 
-0.00052797744383 -0.0010619595156 2.9493722206e-05 -0.0012045400551 -0.0026666293895 0.0027713372672 -0.00044460633862 -0.00128752709 -5.5822854005e-05 
5.785814057e-05 -0.00084728779652 3.6909827472e-05 0.00010472185685 -0.0014610717374 -0.00049915843841 8.7967864523e-05 -0.0014444721991 1.4493215558e-06 
0.00031654413619 -0.0015521678792 -0.000128797421 0.00067467387446 -0.0013581744126 -8.1154402346e-05 0.00032080065853 -0.00093696472914 -6.8619539166e-05 
0.00011202522055 -0.00085596308709 -0.00010882027634 0.00055154859324 -0.0012717794673 -7.5538418938e-06 0.00052452485581 -0.0012690926312 -0.00012311693562 
-0.00017877611783 -0.0011652105417 2.3597797696e-05 0.0010458560849 -0.00081921992883 -0.00032102107631 2.5541727413e-05 -0.0014063690735 2.977891866e-05 
-0.0049964896646 -0.0034283796975 -0.0017914450781 -0.00049548964266 -0.0019728175479 -0.00043557089561 0.00023006081192 -0.00092900652455 -9.3793357558e-05 
0.00026405480946 -0.0012787098892 -9.4673239661e-05 0.00025405812899 -0.00076213828055 3.4427031566e-05 5.1593780291e-05 -0.0012347305973 0.00023343232662 
-9.0946934908e-05 -0.0012719206766 -2.1198767959e-05 0.00010378947098 -0.0014962074707 -1.8401451136e-05 0.00071547268014 -0.0018558183406 0.00028616738011 
0.00035937258682 -0.00077200942395 -1.7849278481e-05 0.00078238363052 -0.00083351791571 0.00011079250352 1.0703628094e-05 -0.0011063656864 0.00069674141385 
0.00027188707048 0.00035153578008 0.00012930732628 -0.0005988217182 -0.00015951335677 6.9687831338e-05 -0.00034151361214 0.00091274029553 0.00059361863444 
-0.00035661211246 -0.00079181645474 0.00085634487753 9.7310055238e-05 -0.00041658365291 -8.1747434114e-05 0.0006645018388 0.00092653462467 0.00059738122311 
0.00014025188155 -0.0002433410518 0.0012561454597 0.00037580486368 -0.00020011866101 -0.0004778243391 0.00054740425012 0.00089338585927 -0.00097171357312 
-0.0004342552476 0.00054172876556 -0.00031987192661 -0.00018075474705 0.00061930105724 -0.0013715947152 0.00064572693149 0.00027327962457 1.048460876e-05 
-7.7388737701e-05 -0.00032865839693 -0.00069146658337 -0.00019398415635 -0.0016629595805 -0.00043253419985 0.0012228793807 -0.0010514210745 0.00037850929934 
0.00012039104609 -0.00015569078311 -5.8068694328e-06 0.0011015293198 -0.00011978551089 -0.00078147241717 -0.00011442840729 -8.0342351412e-05 0.00035729977286 
0.00071269219908 -0.00068047169821 -0.00075161199702 0.00037898910428 -0.00051426485786 1.4673998491e-05 0.00026146988817 -9.0184543127e-05 0.00052800338644 
-0.00028817834643 -0.00027421914661 -6.4374339347e-05 0.00032475077906 -0.00078450520998 5.9929187883e-05 -0.0001053056858 -0.0011414191511 -0.00050765748584 
0.00020942477403 0.00021993423345 -0.00039949654557 0.00016423293322 -0.00097667272014 0.0009741661267 -0.0005889648961 -0.00038016253158 0.00026546142539 
-0.00018154335788 -0.0014067229576 0.00026916918771 0.00039468001535 -0.00049760000964 0.0012489692522 0.0011862396814 -0.0010158218244 0.00087240020525 
0.00074231326392 -0.0010111701857 -1.6262048073e-05 0.00067477331879 -0.00040840064231 0.00019343619418 -0.00023259581804 -0.0017057745645 0.00035558619282 
0.00047986532817 -7.5940003115e-06 -0.00057081201922 0.00041189611647 -0.00051937185419 -9.7696096121e-07 0.00036513469217 -0.0012862990536 0.0003484857086 
-0.00016531583186 -0.0011688327519 -0.00054847755183 0.00080521145048 -0.0014531481264 0.00043984378777 0.00050466651914 -0.00069830721778 0.00081505231994 
0.00010945251903 -0.00036477454959 -1.3725333429e-05 0.00032703102214 -0.000522369244 -0.00038249895285 0.00020856189877 -0.0012067697594 1.1716630268e-05 
3.872235754e-05 -0.00067130726502 -0.00020528977061 0.00076918665862 -0.0015585211885 0.00078679697826 -0.00029363007155 -0.0011071765055 0.0002589500495 
0.00025105180698 -0.0014849904802 0.0002253992557 -0.0003588083025 -0.0012880956324 7.6864401346e-05 -0.00034754381489 -0.0017967110757 0.00030266981238 
0.00033784166889 -0.0015735262061 -8.9420143396e-05 0.0006201838838 -0.0018350712275 0.00055341026651 0.00066056128626 -0.0014680311454 0.0010848672463 
0.00027870127523 -0.0010260311115 1.5336079623e-06 5.9207828979e-05 -0.00099435178118 -3.438438906e-06 0.00058676863067 -0.0014244222955 6.5984688108e-05 
0.00017798845563 -0.001332230381 -0.00060797916659 0.00022440907783 -0.0012537040294 -0.00023364526837 0.00044613739396 -0.0010240176241 -0.0002395152338 
-0.00063860684385 -0.0014319833623 -2.0847627445e-05 -0.00075482236993 -0.002065092447 0.0011486414657 0.00010086818976 -0.0009176495458 -0.00046314855333 
-0.000326689125 -0.0010842145864 0.00026235105736 0.00026200292421 -0.00087988747118 -2.0168093477e-06 0.00011075425221 -0.0014142504063 4.108979941e-05 
0.00018498009449 -0.0011325202222 -0.00013683762946 0.00093845299843 -0.0021269014428 6.2236488334e-05 9.2202324148e-05 -0.0018098342491 -8.5851342562e-06 
-0.00018012136326 -0.00095166559858 0.0003013568836 -0.00052899188774 -0.001416875389 -0.00036726613204 0.00069335681819 -0.0014475429073 -0.00053870824642 
0.00016767834797 -0.00082503039137 1.8502470468e-05 0.00019535593865 -0.0014172913502 0.00019202162593 0.00010013551922 -0.001371894426 0.000131716859 
9.3531188022e-05 -0.00096474310332 0.00036219817991 -4.7015996597e-05 -0.0017345841292 2.1186469598e-05 0.00067981680156 -0.0014131870005 0.00016893465601 
3.0637730123e-05 -0.0020630375546 -8.1754583473e-05 0.00076541657572 -0.0008931616514 0.00049661497308 -0.00011562780951 -0.0017754321593 -0.00028499471993 
0.00011417248182 -0.0017550100782 1.6331592729e-05 0.00039683165337 -0.0012188122037 0.00011167192477 0.00076166157627 -0.0012856896065 0.00031510852398 
0.00011580722781 -0.0014644661876 0.00012304656893 0.00033764688044 -0.00094289810166 4.2813720837e-05 4.1170735382e-05 -0.001200394598 4.4130648609e-05 