# vtk DataFile Version 4.1
vtk output
ASCII
DATASET UNSTRUCTURED_GRID
POINTS 1274 float
0.145929 1.44529 0.037957 0.121586 1.49618 0.123851 0.129675 1.46792 0.230838 
0.129775 1.51256 0.0575564 0.0731953 1.60702 0.0370364 0.094606 1.56953 0.100316 
0.12168 1.5199 0.189736 0.0849749 1.57599 0.217714 0.102241 1.67179 0.0387375 
0.106357 1.63691 0.0993504 0.0889909 1.60766 0.157822 0.114184 1.64115 0.208268 
0.0519319 1.74198 0.0577576 0.0910971 1.83649 0.0410258 0.0918162 1.77392 0.125921 
0.0547089 1.73848 0.203971 0.103078 1.83235 0.214872 0.0491623 1.92028 0.0454155 
0.102329 1.95486 0.072768 0.103818 1.89253 0.0853211 0.0392396 1.8607 0.0947121 
0.113835 1.94337 0.135051 0.0382503 1.90749 0.212976 0.08761 1.89333 0.169821 
0.0856197 2.00547 0.039327 0.0911349 2.00936 0.197182 0.0487066 2.08047 0.210834 
0.0486344 2.09413 0.0344694 0.110316 2.18803 0.061756 0.100437 2.11822 0.0791485 
0.0448586 2.20642 0.0382682 0.100319 2.11794 0.149042 0.0840392 2.16958 0.203703 
0.0565448 2.27484 0.0446672 0.111013 2.33799 0.0539069 0.0478261 2.22576 0.119087 
0.10521 2.28668 0.127207 0.0379806 2.25252 0.204803 0.0942465 2.28388 0.198595 
0.0637112 2.43079 0.0572388 0.109297 2.3986 0.09816 0.083124 2.34838 0.204295 
0.0600361 2.42951 0.212869 0.111202 2.37616 0.259642 0.108205 2.46986 0.121836 
0.109119 2.52666 0.0572151 0.0920914 2.50875 0.216495 0.1102 2.53286 0.152471 
0.189051 1.37723 0.0387336 0.238796 1.39838 0.0669729 0.202576 1.4572 0.0901774 
0.214595 1.40672 0.147958 0.163555 1.39082 0.218962 0.254326 1.38514 0.206098 
0.182932 1.46879 0.180053 0.194542 1.46466 0.250996 0.237249 1.49757 0.0359059 
0.248528 1.51052 0.119628 0.153284 1.57999 0.0498633 0.247064 1.57489 0.0500143 
0.180307 1.53853 0.111911 0.248404 1.49934 0.231121 0.157092 1.5789 0.212298 
0.221231 1.54999 0.178384 0.226953 1.65404 0.0445189 0.165628 1.64862 0.0726531 
0.205256 1.70136 0.0875437 0.144039 1.69256 0.129201 0.204793 1.60596 0.127451 
0.199957 1.66215 0.22804 0.172163 1.63509 0.176977 0.151004 1.69623 0.200275 
0.204072 1.70758 0.162372 0.240929 1.63027 0.18291 0.146691 1.73011 0.0612083 
0.204775 1.77397 0.116928 0.194811 1.81345 0.0459987 0.248641 1.7439 0.0490704 
0.203082 1.83906 0.109502 0.137013 1.79671 0.0761417 0.135306 1.75477 0.217797 
0.19378 1.82635 0.215724 0.251715 1.7193 0.20701 0.24834 1.8136 0.159619 
0.155326 1.75803 0.157553 0.210054 1.76277 0.190262 0.154086 1.92071 0.0424966 
0.233587 1.92857 0.05078 0.238333 1.86496 0.0608526 0.140299 1.85932 0.137363 
0.203811 1.92578 0.149351 0.141484 1.92186 0.207426 0.241353 1.96697 0.235216 
0.203083 1.99402 0.056673 0.152027 2.0895 0.0388876 0.246301 2.08573 0.0496625 
0.188284 2.05912 0.0906795 0.141475 2.02214 0.137141 0.241997 2.02214 0.129548 
0.194769 2.00721 0.212991 0.152877 2.09199 0.202504 0.246427 2.06752 0.221562 
0.209099 2.06623 0.171151 0.212522 2.15506 0.0384287 0.173848 2.1997 0.0609971 
0.241908 2.13463 0.090003 0.14596 2.19749 0.125803 0.192009 2.12127 0.134189 
0.205523 2.1708 0.209085 0.142928 2.19644 0.218876 0.243427 2.11909 0.18299 
0.155461 2.26474 0.0453922 0.200846 2.29933 0.124744 0.204121 2.23152 0.104649 
0.145951 2.25936 0.226601 0.199183 2.33855 0.195618 0.242694 2.24552 0.213964 
0.18536 2.23298 0.179695 0.244084 2.3099 0.235504 0.159973 2.29548 0.172094 
0.163187 2.32213 0.254288 0.193654 2.34395 0.047817 0.24402 2.3731 0.123929 
0.156786 2.43884 0.0656853 0.189438 2.456 0.124311 0.148991 2.35859 0.138844 
0.141679 2.43351 0.223723 0.144233 2.36678 0.202637 0.193649 2.39868 0.170941 
0.195725 2.38671 0.23868 0.196032 2.51307 0.0555164 0.162896 2.51841 0.117257 
0.207447 2.52 0.208586 0.151337 2.489 0.177423 0.236784 2.47639 0.164427 
0.22436 2.53599 0.140949 0.289208 1.40751 0.124663 0.294938 1.46311 0.0516207 
0.341328 1.40595 0.0541633 0.300356 1.46802 0.202884 0.338307 1.38751 0.213332 
0.369028 1.45022 0.186144 0.347636 1.52064 0.117743 0.36031 1.56166 0.0581704 
0.300062 1.55257 0.0888778 0.265379 1.5628 0.231487 0.345039 1.5588 0.224097 
0.305307 1.47171 0.133542 0.292202 1.53041 0.170101 0.297089 1.60695 0.121946 
0.296578 1.66385 0.0477547 0.353301 1.63073 0.0832263 0.254598 1.67162 0.125375 
0.344774 1.68116 0.142573 0.302545 1.65492 0.214654 0.300793 1.59585 0.185368 
0.3058 1.60727 0.263443 0.307478 1.82751 0.0460451 0.348113 1.73802 0.062327 
0.251466 1.80633 0.0835001 0.30658 1.77118 0.131834 0.315213 1.82818 0.230832 
0.333459 1.74369 0.203389 0.34942 1.80058 0.177743 0.278549 1.77741 0.214229 
0.266968 1.86603 0.117058 0.360092 1.86963 0.120254 0.349896 1.90828 0.0391048 
0.288026 1.90369 0.072552 0.29901 1.92884 0.134224 0.255398 1.90226 0.215225 
0.342348 1.90511 0.218358 0.252372 1.9588 0.174002 0.310854 1.85586 0.16861 
0.344644 1.95544 0.175588 0.306449 1.98665 0.0532313 0.33657 2.0429 0.117457 
0.355093 2.07717 0.0552839 0.285198 2.04356 0.0797952 0.299926 1.99752 0.210422 
0.355507 2.07017 0.2288 0.303729 1.99493 0.140491 0.294102 2.05206 0.164632 
0.290733 2.16763 0.0540934 0.354654 2.10897 0.124891 0.259204 2.19965 0.135208 
0.285251 2.11351 0.131653 0.346964 2.19545 0.126759 0.292036 2.19074 0.20566 
0.335718 2.13672 0.195749 0.25991 2.25574 0.0476946 0.303205 2.32959 0.048929 
0.358534 2.26872 0.0532296 0.255654 2.26876 0.113981 0.351824 2.32287 0.0923613 
0.310841 2.29754 0.136281 0.333924 2.25736 0.20701 0.251049 2.31249 0.165318 
0.257302 2.4259 0.0601054 0.342835 2.44592 0.0556868 0.30746 2.39966 0.103216 
0.331929 2.36142 0.146416 0.299604 2.34723 0.230231 0.287286 2.45007 0.137738 
0.252266 2.42348 0.208942 0.36298 2.44262 0.198741 0.352591 2.37618 0.205217 
0.31876 2.42276 0.254363 0.311589 2.53205 0.0544982 0.360002 2.49979 0.0929642 
0.26011 2.49605 0.0919245 0.283405 2.50644 0.213914 0.339737 2.50599 0.166826 
0.339398 2.48963 0.237594 0.439067 1.38335 0.0512213 0.455182 1.44299 0.0837582 
0.388938 1.42177 0.125397 0.440809 1.40377 0.218839 0.442161 1.44628 0.15621 
0.401038 1.47794 0.0396834 0.448094 1.55968 0.0560551 0.454262 1.51338 0.135863 
0.410419 1.49523 0.221214 0.399815 1.58984 0.133771 0.489386 1.48436 0.2177 
0.463535 1.55624 0.226315 0.391729 1.5253 0.165602 0.407878 1.64506 0.0386728 
0.393124 1.68974 0.0894814 0.461134 1.62729 0.0737281 0.451916 1.68391 0.136154 
0.383376 1.66173 0.224447 0.489149 1.59807 0.136216 0.485618 1.66664 0.210649 
0.40758 1.5982 0.210608 0.413462 1.83443 0.0409361 0.443255 1.72517 0.0574577 
0.404476 1.77761 0.078687 0.396475 1.77426 0.143794 0.433549 1.84064 0.139875 
0.396299 1.83508 0.215735 0.452417 1.72854 0.221614 0.498219 1.8253 0.220543 
0.397845 1.76244 0.209204 0.496649 1.82716 0.151833 0.450941 1.74858 0.162743 
0.387142 1.95016 0.124621 0.444071 1.91126 0.0614797 0.49449 1.88039 0.0969214 
0.494216 1.93891 0.143272 0.448785 1.9154 0.200742 0.392134 1.94846 0.215629 
0.390923 1.89148 0.174373 0.411392 1.99918 0.0617044 0.44062 2.0904 0.0498252 
0.471165 2.02973 0.0674025 0.46737 1.97138 0.0870448 0.44235 2.02041 0.130746 
0.416913 2.00498 0.207676 0.494743 1.9902 0.207885 0.455453 2.08115 0.222485 
0.381443 2.05604 0.165741 0.407603 2.16617 0.0423653 0.448035 2.20707 0.0791551 
0.488783 2.17235 0.120505 0.439011 2.14004 0.100483 0.417338 2.10948 0.150704 
0.450397 2.21584 0.140168 0.39651 2.17688 0.209367 0.490541 2.10693 0.127379 
0.486821 2.17616 0.222111 0.496607 2.12166 0.191588 0.449386 2.16059 0.171278 
0.413044 2.33823 0.0481007 0.451098 2.26886 0.0477031 0.499876 2.33335 0.0365517 
0.405092 2.24793 0.093963 0.39952 2.29959 0.136876 0.491666 2.29226 0.138126 
0.446389 2.24994 0.220994 0.39359 2.28131 0.203348 0.491065 2.29213 0.207584 
0.444548 2.37287 0.123622 0.400918 2.44886 0.123805 0.447483 2.44059 0.0610107 
0.388735 2.39635 0.0727963 0.408449 2.34264 0.201257 0.498125 2.35482 0.2119 
0.498404 2.46615 0.127846 0.452709 2.43755 0.221085 0.488805 2.40248 0.167534 
0.389946 2.4513 0.262496 0.409005 2.52704 0.0527786 0.499126 2.52257 0.0610588 
0.446025 2.49851 0.0995095 0.393891 2.52922 0.220873 0.453404 2.50414 0.261116 
0.556928 1.3921 0.0528254 0.547171 1.45751 0.0910452 0.506781 1.4296 0.136705 
0.592237 1.43128 0.126368 0.550497 1.40031 0.212414 0.556984 1.45392 0.171571 
0.50732 1.47472 0.0405747 0.603043 1.47688 0.0489523 0.55384 1.55931 0.0659107 
0.504355 1.52477 0.087519 0.546181 1.50423 0.135188 0.602349 1.49141 0.210378 
0.614275 1.5911 0.144537 0.559246 1.56618 0.222522 0.506166 1.53547 0.178689 
0.512853 1.65374 0.0387483 0.591938 1.64142 0.0642177 0.50723 1.65531 0.105908 
0.55517 1.60875 0.109772 0.507084 1.71178 0.0760958 0.589417 1.69895 0.0915111 
0.547038 1.69114 0.138792 0.606187 1.64372 0.219572 0.541954 1.62877 0.181327 
0.543375 1.63096 0.260493 0.509087 1.82371 0.0641099 0.561984 1.74668 0.0485336 
0.614524 1.83685 0.0626554 0.505574 1.76386 0.129399 0.606938 1.77779 0.134957 
0.538823 1.73983 0.224745 0.611344 1.83401 0.209992 0.597504 1.72258 0.185047 
0.55022 1.79096 0.177914 0.559847 1.80177 0.249467 0.542078 1.90376 0.0514537 
0.537962 1.95649 0.0983137 0.552212 1.86421 0.128987 0.595266 1.93823 0.13449 
0.536179 1.89804 0.22478 0.584012 1.88898 0.184129 0.595308 1.92272 0.236468 
0.517399 1.99849 0.0399489 0.555567 2.04146 0.121862 0.609843 1.99801 0.0422354 
0.560816 2.08704 0.057205 0.608284 2.00268 0.111516 0.606375 1.99093 0.216071 
0.540538 2.07562 0.208201 0.543253 1.9834 0.158237 0.592698 2.04832 0.177242 
0.594874 2.05782 0.239616 0.505295 2.17521 0.0518327 0.599158 2.18707 0.0567937 
0.559213 2.14319 0.0892321 0.541552 2.20629 0.127336 0.595672 2.1039 0.134147 
0.589894 2.17458 0.205165 0.598196 2.1051 0.201305 0.536943 2.13654 0.241157 
0.536154 2.14803 0.151764 0.550279 2.19849 0.25911 0.552785 2.25535 0.0575111 
0.546696 2.30999 0.100707 0.597764 2.28809 0.133823 0.534308 2.2513 0.228005 
0.547368 2.25801 0.165408 0.605097 2.2366 0.175808 0.54918 2.33029 0.17155 
0.541084 2.31482 0.239407 0.600487 2.24041 0.242414 0.547283 2.38572 0.119712 
0.595964 2.34596 0.0619946 0.542943 2.42005 0.0414155 0.608914 2.45544 0.124142 
0.590893 2.40763 0.0808648 0.500917 2.34939 0.100639 0.588801 2.35488 0.222503 
[...]
POINT_DATA 1274
FIELD FieldData 10
VELOCITY 3 1274 double
0.95031288092 -2.3043665746 0.0017106808685 0.66175861966 -1.6058671087 -0.23867269624 0.79777628287 -1.9375752984 0.29601689561 
0.59493366311 -2.2620510846 -0.42294062622 0.9568517566 -2.2230920343 -0.087352689958 0.80155231349 -1.9466271346 0.0014824512213 
0.26509323392 -2.2040885836 0.01292463266 0.78052262844 -1.8955550402 -6.8861120228e-17 0.62472480137 -1.9919629312 -0.029978698475 
0.30969661944 -1.9532569266 0.40171423472 0.028073145206 -2.3690305267 0.23485650724 0.020690022093 -2.4671621134 0.30406431107 
0 -2.646 0 -0.064225567576 -2.5428183324 -0.064373432968 -0.022376521704 -2.6287682468 -0.0043906034409 
0 -2.646 0 0 -2.646 0 1.6289943752e-05 -2.6458950278 -3.4474229613e-05 
0.0015615551015 -2.6335468994 0.0062523579224 -0.0021861445615 -2.6291580934 0.012828236697 -0.0086861259221 -2.6240713278 0.016115472622 
0 -2.646 0 -0.003468313639 -2.6442915448 0.002527492065 -0.0034538497936 -2.6435275543 0.0018697644423 
-0.00093484324547 -2.6392447216 -0.0023835265042 0 -2.646 0 0 -2.646 0 
-0.00096847606753 -2.6464503783 -0.0008352938289 0.00017052461075 -2.6461855287 0.00016255564505 -0.00096847606747 -2.6464503783 -0.00083529382885 
0.00019990759824 -2.6460610761 0.00017789076859 0 -2.646 0 0 -2.646 0 
-3.1616485134e-05 -2.6458521136 1.191795359e-05 0 -2.646 0 0.0023472973622 -2.6427415243 -0.00015501912247 
0.0018691625949 -2.6422822241 -0.00020754208987 -4.3312848152e-05 -2.646015932 -1.1801800181e-05 -0.00027115383934 -2.6456314765 -0.00014981046491 
-8.8808055775e-05 -2.645977696 -9.5599506567e-05 -7.3451796187e-05 -2.6464856507 -0.00050960300282 -0.00067616578982 -2.6456834609 -0.00033898890371 
0 -2.646 0 -0.0021060694203 -2.6445421583 -0.00016456926776 -0.00029097430256 -2.6464480626 -0.00063209700813 
0 -2.646 0 0.00027404980227 -2.646389681 -0.0004860835656 -0.0015832258097 -2.6448313508 -0.001379877976 
0.38235133108 -2.7359286693 -0.08679908704 0.37575990349 -2.7843347132 -0.038170685941 0.82753394897 -2.3654121154 0.15029348575 
0.25865521754 -2.6965933601 0.053609848255 0.77696967409 -1.8869264231 -0.00016291999921 0.15797812561 -2.7324143005 0.11429023282 
0.65875366153 -2.2994862593 0.30832826511 0.51667999289 -2.4667176169 0.42498335795 0.4532898701 -2.2000863916 0.00075965350236 
0.74123510936 -2.5203754089 -0.18718265053 0.14673269452 -2.0927564924 -0.39206167993 -0.00035126239722 -2.6459433016 -0.00036174072039 
0.96871024924 -2.0004880695 -0.41461506292 0.42817024532 -2.3954752705 0.31330354419 0.16207306559 -2.1819282976 0.13925718938 
0.57388198551 -2.2069124472 0.18268166566 0.25847721116 -2.4952858292 -0.098532982975 0.15629836074 -2.1837098166 -0.068016434915 
0.15161663527 -2.2535782025 0.19611993433 -0.017932341921 -2.4435900929 0.081036455609 0.39195215649 -1.8298357497 -0.19592321911 
0.008255257011 -2.5553889123 0.12412006169 0.092734948004 -2.2920687944 -0.071347050372 0.037815521699 -2.5023842339 0.11482630228 
0.051938700827 -2.6228454185 0.042262295045 0.24696565849 -2.4189132262 0.19971841723 0.53842300398 -1.9100152752 0.16957633616 
0.00082903340929 -2.6464898124 -0.0014558612173 0.08600142986 -2.59212919 -0.03772020265 0.15784053853 -2.5056996823 -0.079976822101 
-0.012581173822 -2.6253869236 0.012432631798 0.14274632071 -1.9643745418 0.31051675892 -0.030059206738 -2.6002398956 0.12287551968 
0.00576662662 -2.6219896363 0.018330559662 0.044691037817 -2.6699284315 0.018917908798 0.008920409961 -2.6419201838 0.0029824306149 
-0.011206921531 -2.4313694431 0.10809577405 0.050441341942 -2.6351955338 0.067229483523 -1.9559928224e-06 -2.6455051737 0.00011701581559 
-0.0024879739569 -2.6126206371 -0.0091720930727 -0.00088265599644 -2.6133458122 -0.0051337540774 -0.0022495237189 -2.6441994108 0.0039802507846 
-0.0013764769484 -2.6459268342 0.0002791378394 0 -2.646 0 0.00039564508069 -2.6466287697 0.0011346957786 
0 -2.646 0 0 -2.646 0 -0.00018424623119 -2.64617839 -0.00014845446506 
0 -2.646 0 0 -2.646 0 0.0017718525196 -2.6479100507 0.0004655215306 
0.00050395306988 -2.646799044 0.00059697945481 -3.7788267268e-05 -2.6460017308 1.1174826459e-05 -6.3061075001e-06 -2.6465173642 0.00038101279269 
-0.00023879658179 -2.6463151184 -9.2910376328e-05 0.00056135291015 -2.6460166004 -0.00036622104089 0.00034270805382 -2.6459986136 -0.00077595261636 
0.00012846460973 -2.6460030685 -0.00011201677816 -0.00016490716893 -2.6458898608 -0.00023899021658 0.00012066319928 -2.6459900671 -0.00011509779741 
-0.00065562792298 -2.646247484 0.0004011358463 -0.00046903670277 -2.64517796 0.00067834938609 -0.00012161572357 -2.6464361309 0.00017952657483 
-3.4359513485e-05 -2.6459333648 -6.7343352037e-05 -0.00071440823749 -2.6436134032 -0.00044553177221 -0.001776159181 -2.6434660992 -0.00088163630535 
-0.00012135952623 -2.6447701761 0.00033686902716 0.0019862050486 -2.6453560263 0.0018717399802 0.00028476890696 -2.6458899425 0.00017648172789 
-0.00014027516957 -2.6456053477 0.00062422232901 0.0017279102707 -2.6463377101 0.0014635876263 0.0013404026395 -2.6447180925 0.0012898267665 
-0.0013656382614 -2.6445353688 0.00059915197141 0 -2.646 0 0.00017253461259 -2.6465927042 0.0004084066928 
0 -2.646 0 7.6070495708e-06 -2.6458209276 -6.3646902408e-06 0.00011638607738 -2.6465121091 -0.00071177837766 
0.0015622970893 -2.6460471678 0.0004258532798 -0.00048691477525 -2.6458040003 -0.00084262436049 -0.00015808232455 -2.6461565043 -8.394229437e-07 
0.0024362969569 -2.6451662413 0.0020134986004 0.00037916145587 -2.6457612931 -0.0011267288395 -7.9189190246e-05 -2.6457148497 -0.0012422000928 
-0.00027503987879 -2.6462082434 -0.00052479736415 3.9559638802e-06 -2.6465256964 -0.00082829098091 0.00041982667704 -2.6457447566 -0.00052745306701 
0.00012750471046 -2.6457118933 -0.00030801527042 0.01243768346 -2.7855926737 -0.012230735516 0.2911752539 -2.659157813 -0.02244791745 
0 -2.646 0 0.19379138655 -2.5963506775 0.032358753604 0 -2.646 0 
0.15105421454 -2.7066479912 -0.038116323216 0.087179195989 -2.5897298202 -0.045498069696 0.00048872099747 -2.6461442913 -0.00043532869384 
-3.5746750201e-05 -2.6480138265 -0.0019761553457 0.43235300778 -2.3949925295 0.37913827279 0.0080418315767 -2.6516083411 0.0056871503747 
0.44801469614 -2.8834657763 0.035299075262 0.34567645311 -2.5796227852 0.20462750909 0.011927481298 -2.6265613054 -0.035303909522 
-1.543141585e-05 -2.6459834839 -6.1654983487e-06 0.00021951417308 -2.6449954238 0.00054995247568 0.060793838541 -2.608743114 0.0081625982776 
0 -2.646 0 0.018517100689 -2.5955322582 0.00059177360423 0.10061517313 -2.5713354529 -0.030038154094 
0.40588073656 -2.3270876963 0.36595685671 0.018536650949 -2.6304826317 -0.0044590774176 -0.00015060769297 -2.6459477566 -3.6931261999e-05 
0.035607172905 -2.5788652459 0.053673770969 0.0027565196019 -2.6474893413 -0.0014369795959 0.00043869958643 -2.6453171012 0.00017342927347 
0.0013723176979 -2.6477973745 0.00055858106281 -0.00031860930439 -2.6459758219 0.0005816281303 0.0018165212827 -2.6479736427 0.0033711705288 
0.0031803520582 -2.6404237179 -0.0025592836724 0.0054177470587 -2.6432048957 -0.00438605416 0.0099014146438 -2.6407875596 -0.0037064734502 
0.0091606671889 -2.6201881858 -0.0022466377244 0.0050304191776 -2.6425887149 0.0081646765837 0.0001149157941 -2.6463666442 5.4350936058e-05 
-0.00042345921329 -2.6445783985 -0.00072293243614 -0.00097740460273 -2.6453100478 0.00061938158343 0.0076877602489 -2.6378739265 -0.00055423151551 
0.00071676446438 -2.6435710677 -0.0012664737152 2.7896405617e-05 -2.6465270694 -0.00028475966896 0.0010298286794 -2.6467943323 -0.00034820480932 
5.9794161528e-05 -2.6461015296 -0.00012975697165 0.0003894039672 -2.6464092871 -0.00024642544686 -0.00018588181349 -2.6459699561 0.00056537733311 
0 -2.646 0 0.0032888465532 -2.6419816892 0.0030900869634 0.00070685450181 -2.6459112271 0.00039841495852 
0.00011397996786 -2.6459576043 -9.6571663436e-05 6.4750348656e-05 -2.6463882033 1.6649909767e-06 -0.0012884776509 -2.6434592163 -0.001460963673 
8.3714468636e-05 -2.6459507834 -0.00012129867638 0 -2.646 0 -0.0096163886158 -2.6344272238 0.0021379041189 
-0.0093162297803 -2.634208207 0.0022630810104 9.790881475e-05 -2.6454097669 -0.0012136296372 -9.0638413904e-06 -2.6459928152 -1.5076559322e-05 
-0.00032958552858 -2.6458637409 -0.000127988433 -0.00015003009222 -2.6433971731 -0.0014800094026 0.00013410665648 -2.6457825226 -0.00014179824452 
0.00034991266584 -2.6455104726 0.00021780903986 -0.00091600640592 -2.646048895 -8.1365261918e-05 0.0012714800891 -2.6460255055 0.0010653541112 
0.00080768932054 -2.6468662453 0.00050981200903 -0.00076102442015 -2.645640909 -0.0006177444133 0.00089042065302 -2.6467201533 0.00050265101464 
0.00074634536249 -2.646810543 0.00050975125737 0.0012844080361 -2.645815889 0.00042648005805 0.0011886959817 -2.6480239265 0.0027439448211 
-0.00018311974058 -2.6456608327 -0.00021148632861 0.0018728766666 -2.6451532773 0.0013156415672 0.0014355935202 -2.6463289638 0.00014985994326 
0.00015605452869 -2.641663409 0.0012675817811 -2.0631518334e-05 -2.6459732838 -3.9797532005e-05 0.00015845641418 -2.64608733 -0.00035822296626 
0.0015133315857 -2.6476357455 0.0021991426124 -0.00081297535652 -2.644968929 -0.00046109948939 0.0013677474557 -2.6459683269 -3.1559963727e-05 
0.0012133584062 -2.6403505781 0.0018975531541 -0.00096525003273 -2.6495769794 -0.0019501833601 -0.00081750425673 -2.6493269158 -0.0017341455975 
0.065688513804 -2.6919997963 -0.079960477729 0 -2.646 0 0.00060056113262 -2.6461069195 -0.00026612162631 
-8.1295320451e-05 -2.6459895996 -7.7840718655e-05 -0.00017873577954 -2.6463513379 5.3897437121e-05 0.00090404310583 -2.6453401763 0.00014881225126 
0.042590110553 -2.6283593121 0.017089864374 0.00026246291889 -2.6485925245 0.00099929292284 -0.00013702599347 -2.6476390556 0.0017816659485 
0.0011605905688 -2.6466668307 0.0015592410284 0.025360211762 -2.6434551546 0.017857328522 0.00018599752255 -2.6461042611 0.00014460882313 
0.00072915441869 -2.6448506449 0.00048092409517 -0.00052935029425 -2.6465415064 0.0010556120021 0.0021554326585 -2.6481120748 -0.0005977272348 
-7.5450752594e-06 -2.6457918532 5.3833163372e-05 -1.2801771553e-05 -2.6467641451 0.0001785845453 0 -2.646 0 
0.0027428374149 -2.6448748341 0.00063773012786 -3.8905563544e-06 -2.6464229565 -0.00012930432754 0.00096114026792 -2.6454148484 -0.00035185035923 
6.0074048921e-05 -2.6462653926 0.00012386372116 -8.3162035486e-05 -2.6467164507 0.00038662437273 -0.00048864048913 -2.6458015919 -0.00015375630477 
-9.4053209545e-06 -2.6444200254 -0.00095406532362 0.00098594854371 -2.6466809586 0.00051005211767 -3.4378380041e-05 -2.6460004495 -1.416226622e-05 
0.0010642937131 -2.6466307945 0.00029970134429 -0.00038618673492 -2.6457229532 -0.0002580364411 0.00026561858204 -2.6462719104 -7.3556076145e-06 
0.00075513925768 -2.6452995453 -0.0011520476986 -0.00057448083568 -2.6455569545 -0.0001637252075 -0.00054820880506 -2.6419442663 0.0031049036559 
0 -2.646 0 0.00030720841338 -2.6457176621 7.4529226353e-05 0.00027176162555 -2.6452732596 -3.1878462818e-05 
1.8923133633e-05 -2.6437737847 -0.0010562177101 -1.5426274987e-05 -2.6459807812 -4.5438059516e-06 -0.00030040026986 -2.6446422576 0.0010551653766 
3.412331781e-05 -2.6458728974 -6.366207823e-06 4.4177131714e-05 -2.645870605 2.0724734078e-05 7.9120717553e-07 -2.6459170398 5.204641768e-05 
0.00046133730668 -2.6453573045 -6.9519359976e-05 -0.00063936682125 -2.6457005989 0.00033370232649 -0.00016929003458 -2.6460521013 7.9425765659e-05 
0.00030568454313 -2.6462421051 0.00017889994897 -0.00044789176276 -2.6463588578 -9.8552501381e-05 -0.0014202582026 -2.6463245887 0.0010080420332 
0.00031630225322 -2.6442747355 0.00068702005779 -0.00094839029563 -2.6441003035 0.0011119981216 4.6784558095e-05 -2.6460046823 0.00040232064855 
-0.00041583150804 -2.6451818263 0.0012941603485 0.0011082326979 -2.6455434918 -0.00019124191532 -0.0001349497187 -2.6443830129 -0.00018297346403 
0.00020487788414 -2.6457435248 0.00034506237235 0.00015642044478 -2.6456243591 8.9597417402e-05 0.00088851695709 -2.6462910516 -0.00018071225895 
0 -2.646 0 -0.00053034502019 -2.6465017772 0.0006006737988 -0.00014616582618 -2.6457722055 0.00033988865792 
-0.0010275255439 -2.6458005675 0.00070899852729 -0.00026372106531 -2.6454914348 0.0004400048743 -1.7609742849e-05 -2.6460407084 1.0881795298e-05 
-0.00069315113976 -2.6477236591 0.00023689319776 9.6177784852e-05 -2.6463945612 0.00023733031638 -0.0010003127987 -2.6467767758 -8.0458029783e-07 
-0.00049980882707 -2.6458410068 0.0002829414064 8.7439282318e-05 -2.6457585631 0.00028273738584 6.6294257804e-06 -2.6459895711 -2.0427632281e-06 
-0.00053284956876 -2.6452948814 -6.9809523541e-05 0.0012353314326 -2.6466779973 -8.8941179888e-05 -0.0014450473339 -2.6455860894 0.0011001193184 
0.0007256331022 -2.6451414653 0.00019939345905 0.0018662659364 -2.6454410299 0.0011156308377 0.0013016399389 -2.6449615696 0.00050017489412 
0.0019128065061 -2.6440309427 0.0017133751502 0.00025936593729 -2.6459536838 -0.00016281749169 -4.5398500406e-06 -2.6459942015 -3.241453625e-06 
0.0001392540259 -2.6460824317 0.00019525805074 0.0022400746494 -2.6423777286 -0.00082745106766 0.00053439754306 -2.6451724671 0.00070089599625 
0 -2.646 0 7.4582745069e-05 -2.6461919563 -0.00033961605336 0 -2.646 0 
7.0410152093e-05 -2.6460648208 -4.4914474562e-05 0.0001130664968 -2.6469574855 0.00070255637292 0.00047252908578 -2.6468118563 0.00065738429228 
0.00025859175738 -2.6460661407 -0.00047128266813 0 -2.646 0 0.00056658140076 -2.646639703 -0.0013363615448 
0.00041301339205 -2.6459650629 -0.00056910329511 0.00067003351048 -2.6466503729 0.00029545113985 0.0005565257855 -2.6451488732 -0.00049637962595 
-0.00012955808556 -2.6461191953 0.00017288305143 0.00036763984728 -2.6474149041 0.00083226715849 0.00089263099669 -2.6476101351 0.0017302565135 
-0.00093170102106 -2.6475227058 -0.00030100708464 0.00039334013788 -2.6466294372 -0.00098009824447 0.002825543854 -2.6475906634 0.00012415450446 
-1.5109825969e-05 -2.64661005 -0.00095499804068 0.00091972870811 -2.6471956664 0.00012743943722 0.0004645568167 -2.645771049 -0.00032836067715 
0.0011408664697 -2.6462152814 0.00070909982412 8.214941649e-05 -2.6460118079 -2.4566807041e-05 0.00029770110475 -2.6470503607 1.132361088e-05 
7.1296378292e-05 -2.6459517858 -3.0808837149e-06 -0.00066102952096 -2.6418683872 0.0029232631531 0.00020500735706 -2.6457829544 -0.00018578238253 
-0.0020411822111 -2.6440146979 -0.0012555059185 -0.00015799801354 -2.646004609 -0.00058321951874 -3.3316986408e-05 -2.645779759 -0.00021067025668 
-0.00074703314428 -2.6479107299 -0.00095854502899 4.2687902947e-05 -2.646031657 1.5569465047e-05 0.0016664327362 -2.645344935 0.00064594286674 
-0.00027611694166 -2.64617618 -0.0003658646689 -0.00052756171714 -2.6474177528 -9.7387397863e-05 -8.0546601114e-06 -2.6460125151 -2.8675493872e-05 
-0.00075081078936 -2.6455414551 -0.00061771249475 0.00013971189771 -2.6459931744 1.8975262488e-05 0.0017055453207 -2.6404883139 -0.0017481421224 
-8.6687865542e-05 -2.6460281277 -0.00014748934596 0.0002357501714 -2.6459654478 -4.8275069355e-05 -0.00027572421037 -2.6452300616 -0.00040730672614 
0 -2.646 0 -0.0022517072609 -2.6443074832 -0.0027587279737 0.00017693579078 -2.6453538017 -0.0016661074628 
-0.00067504315048 -2.6474197109 -0.0020768861017 0.001206073369 -2.6401599804 -0.0017819389917 -0.0025758558267 -2.6427640832 -0.0019268946144 
-5.6477745562e-05 -2.64598835 -0.0003341066562 -0.001112945028 -2.6439172865 -0.00049346521743 -0.00053783964244 -2.6435622156 -0.0038830428229 
0 -2.646 0 -0.0015593945453 -2.6458435584 0.00014772042446 5.8396922655e-05 -2.6459042118 -0.0001357891207 
-0.00064691281196 -2.6460506983 -0.0011908812083 0.0012076881127 -2.6454263666 -0.00015163169715 -0.00025853911727 -2.6454970863 -0.0010193235084 
-0.00015947298013 -2.6450637971 0.00080101780706 0.00040477966232 -2.6449303057 -0.00055410263861 9.928333074e-06 -2.6459105857 0.00071660606524 
0.0004222020161 -2.6453058129 0.00047580685718 -3.4636095771e-05 -2.6448554113 0.0011198979323 -0.00010807526521 -2.6461383609 -0.00020788937391 
-0.00014138079549 -2.6460950469 -0.00023748447555 0.00014652939766 -2.6467605749 -0.00086834351533 -0.00024318056336 -2.6457991907 0.00035136475581 
0.00014826223757 -2.6456257913 0.0002888302102 0.00023493592428 -2.6455822699 -9.9361504175e-05 4.8863386878e-06 -2.6429567425 0.00088308671282 
-0.00077002516743 -2.6454394815 0.00027002082689 -0.0007480107281 -2.6443775653 0.00014997883131 -0.00023459460624 -2.646016223 0.00041937778645 
-6.6294144005e-06 -2.6460585069 4.7097325645e-06 -0.00031267061211 -2.6461607636 0.00016250173228 0.00022157231804 -2.6457625045 -0.00039819088581 
-0.00018339163362 -2.6461835041 0.00036831052163 -0.00039371408964 -2.6457650758 0.0003381612409 0.00041650815621 -2.6446708034 0.001921481216 
0.0013333074396 -2.6452720087 0.00035459961231 0.0016256657414 -2.6449884703 0.00025606942713 0.0017372275555 -2.6437983527 2.6382145634e-05 
0.0016355491391 -2.6435351438 -0.00086353558293 0.0024019306219 -2.6445664769 0.0017136561693 0.0014485187328 -2.6455671349 0.00052088774554 
0.00067097072405 -2.6454766371 -0.00050041271042 0.00052643997871 -2.6454794549 -0.00057169093732 0.00038058424683 -2.6450499569 0.00035033714842 
0.00076127566012 -2.643848712 0.00070156994973 0.00075316122246 -2.6443274139 -0.00064861975032 0.00089123418685 -2.6449887005 -0.0010313394424 
0.00046839496293 -2.6480318378 -0.0012227833138 0.00039567071906 -2.6460965034 0.00041269897106 0.00014983807642 -2.6473942492 -0.00094454148863 
0.00033371236557 -2.6461292906 0.00033238616385 0 -2.646 0 -5.5092242679e-05 -2.6458355764 -0.00056274803491 
-1.5782826758e-05 -2.6459036241 -0.00041359907571 0.00029499593366 -2.6463195503 0.00032394494659 -5.1698560557e-05 -2.6460955902 6.8153699445e-05 
4.5748389245e-05 -2.645967028 9.794592124e-05 0.0002113346687 -2.6458766758 0.00059307404841 -0.00010642196077 -2.6460372926 -0.00038468399854 
-0.00010967858713 -2.6462469183 -8.7006051919e-05 6.2893364086e-05 -2.6455954713 0.00016610748463 -7.3302203545e-05 -2.6461530563 -5.1330091316e-06 
0.00071241907939 -2.6452259094 -0.00061644847934 -0.00010361363535 -2.6460922149 0.00016948154705 -0.00018621489568 -2.6461099806 9.9255821838e-05 
-7.4159039027e-05 -2.6459902716 -5.3500243763e-05 9.1794435126e-05 -2.6460479546 -5.4286645257e-05 -0.00078500387464 -2.6461813373 0.00032704217411 
0.00011259593747 -2.6460588356 -3.3277434947e-05 -0.00016484433017 -2.6462385208 -2.1745609091e-05 -0.00099327784103 -2.6462656589 0.00081196879096 
-0.0010191556947 -2.645095519 -0.00049289504059 -0.0024014796729 -2.6448730843 -0.001708368084 -1.907812201e-05 -2.6458026967 -0.00019405951818 
0 -2.646 0 -0.0024500399587 -2.6445869107 -0.0015469686751 0.0018552062519 -2.6449691366 0.00049282781677 
0 -2.646 0 -8.8871864262e-06 -2.645994622 3.6718360598e-06 -7.847504768e-05 -2.6472801575 -0.0019859484272 
-1.320288627e-05 -2.6460195517 -3.8401874168e-06 0.0015909104795 -2.6474369333 -0.00033908562161 -0.00011355269483 -2.6458638071 -0.00010028284301 
0 -2.646 0 -3.1998632345e-05 -2.646048747 5.025245681e-05 0.00039728618046 -2.6470521889 -0.00042972122909 
1.472987348e-05 -2.6462154838 5.3697370628e-06 0.0020032726875 -2.6451502265 -0.0004126127889 0.0016025621473 -2.646973453 0.0010455366346 
-0.00024257860793 -2.6464446996 -0.00098405314776 0.001097137155 -2.6473192515 -0.0003133257458 0.0016470469849 -2.6475549052 0.00068370768177 
0 -2.646 0 0.0003626860823 -2.6451298397 0.00024097471146 0.00050676252324 -2.6450004079 -0.00022301518084 
0.00010678262031 -2.645638565 0.00036061268518 0.0016985971223 -2.6456559945 0.0008446674881 0.00056447479357 -2.6448924811 0.00044946337375 
0.00018472363602 -2.6459910116 -6.6912763711e-05 0.00030757713639 -2.645397667 -0.00033551577646 0 -2.646 0 
3.8712876606e-05 -2.6461619926 -7.917337706e-05 -3.2435416617e-05 -2.6457071217 -4.9996981499e-06 0.0005663317408 -2.6454098085 0.00020735514145 
0 -2.646 0 0 -2.646 0 3.4125237561e-05 -2.6451066875 0.00077762898074 