# vtk DataFile Version 4.1
vtk output
ASCII
DATASET POLYDATA
POINTS 28 float
0 2.31419 0 0 1.7 0 0 1.7 0.3 
0 2.31419 0.3 0 2.92838 0 0 2.92838 0.3 
2 2.31419 0.3 0.666667 2.92838 0.3 2 1.7 0.3 
1.33333 2.92838 0.3 2 2.92838 0.3 2 1.7 0 
2 2.31419 0 2 2.92838 0 0.666667 2.92838 0 
1.33333 2.92838 0 1.3 0 0 0.7 0 0 
0.7 0 0.3 1.3 0 0.3 1.65 0.85 5.55112e-17 
1.3 0 5.55112e-17 1.65 0.85 0.3 2 1.7 5.55112e-17 
0.35 0.85 0.3 0.35 0.85 0 0.7 4.44089e-16 0.3 
0.7 4.44089e-16 0 
POLYGONS 40 160
3 0 1 2 
3 0 2 3 
3 4 0 3 
3 4 3 5 
3 6 7 3 
3 3 7 5 
3 3 2 8 
3 3 8 6 
3 7 6 9 
3 6 10 9 
3 6 8 11 
3 6 11 12 
3 10 6 12 
3 10 12 13 
3 14 15 12 
3 12 15 13 
3 12 11 1 
3 12 1 0 
3 12 0 14 
3 0 4 14 
3 14 4 5 
3 14 5 7 
3 13 15 9 
3 13 9 10 
3 15 14 7 
3 15 7 9 
3 16 17 18 
3 16 18 19 
3 11 1 17 
3 11 17 16 
3 18 19 8 
3 18 8 2 
3 20 21 19 
3 20 19 22 
3 23 20 22 
3 23 22 8 
3 24 25 1 
3 24 1 2 
3 26 27 25 
3 26 25 24 

CELL_DATA 40
FIELD FieldData 1
MATERIAL_ID 1 40 int
0 0 0 0 0 0 0 0 0 
0 0 0 0 0 0 0 0 0 
0 0 0 0 0 0 0 0 0 
0 0 0 0 0 0 0 0 0 
0 0 0 0 
POINT_DATA 28
FIELD FieldData 1
VELOCITY 3 28 double
0 0 0 0 0 0 0 0 0 
0 0 0 0 0 0 0 0 0 
0 0 0 0 0 0 0 0 0 
0 0 0 0 0 0 0 0 0 
0 0 0 0 0 0 0 0 0 
0 0 0 0 0 0 0 0 0 
0 0 0 0 0 0 0 0 0 
0 0 0 0 0 0 0 0 0 
0 0 0 0 0 0 0 0 0 
0 0 0 
