# vtk DataFile Version 4.0
vtk output
ASCII
DATASET POLYDATA
POINTS 8 float
0 0.4 0 0.5 0.4 0 0.5 0.4 0.125 
0 0.4 0.125 0.5 0.679457 0 0.5 0.679457 0.125 
0 0.679457 0 0 0.679457 0.125 
POLYGONS 12 48
3 0 1 2 
3 0 2 3 
3 1 4 5 
3 1 5 2 
3 4 6 7 
3 4 7 5 
3 6 0 3 
3 6 3 7 
3 1 0 6 
3 6 4 1 
3 2 7 3 
3 7 2 5 

CELL_DATA 12
FIELD FieldData 1
MATERIAL_ID 1 12 int
0 0 0 0 0 0 0 0 0 
0 0 0 
POINT_DATA 8
FIELD FieldData 1
VELOCITY 3 8 double
0 0 0 0 0 0 0 0 0 
0 0 0 0 0 0 0 0 0 
0 0 0 0 0 0 
