# vtk DataFile Version 5.1
written by meshio v5.3.4
ASCII
DATASET UNSTRUCTURED_GRID
POINTS 16200 float
0.004999999888241291 0.4050000011920929 0.004999999888241291 0.014999999664723873 0.4050000011920929 0.004999999888241291 0.02500000037252903 0.4050000011920929 0.004999999888241291 0.03500000014901161 0.4050000011920929 0.004999999888241291 0.04500000178813934 0.4050000011920929 0.004999999888241291 0.054999999701976776 0.4050000011920929 0.004999999888241291 0.06499999761581421 0.4050000011920929 0.004999999888241291 0.07500000298023224 0.4050000011920929 0.004999999888241291 0.08500000089406967 0.4050000011920929 0.004999999888241291 0.0949999988079071 0.4050000011920929 0.004999999888241291 0.10499999672174454 0.4050000011920929 0.004999999888241291 0.11500000208616257 0.4050000011920929 0.004999999888241291 0.125 0.4050000011920929 0.004999999888241291 0.13500000536441803 0.4050000011920929 0.004999999888241291 0.14499999582767487 0.4050000011920929 0.004999999888241291 0.1550000011920929 0.4050000011920929 0.004999999888241291 0.16500000655651093 0.4050000011920929 0.004999999888241291 0.17499999701976776 0.4050000011920929 0.004999999888241291 0.1850000023841858 0.4050000011920929 0.004999999888241291 0.19499999284744263 0.4050000011920929 0.004999999888241291 0.20499999821186066 0.4050000011920929 0.004999999888241291 0.2150000035762787 0.4050000011920929 0.004999999888241291 0.22499999403953552 0.4050000011920929 0.004999999888241291 0.23499999940395355 0.4050000011920929 0.004999999888241291 0.24500000476837158 0.4050000011920929 0.004999999888241291 0.2549999952316284 0.4050000011920929 0.004999999888241291 0.26499998569488525 0.4050000011920929 0.004999999888241291 0.2750000059604645 0.4050000011920929 0.004999999888241291 0.2849999964237213 0.4050000011920929 0.004999999888241291 0.29499998688697815 0.4050000011920929 0.004999999888241291 0.3050000071525574 0.4050000011920929 0.004999999888241291 0.3149999976158142 0.4050000011920929 0.004999999888241291 0.32499998807907104 0.4050000011920929 0.004999999888241291 0.33500000834465027 0.4050000011920929 0.004999999888241291 0.3449999988079071 0.4050000011920929 0.004999999888241291 0.35499998927116394 0.4050000011920929 0.004999999888241291 0.36500000953674316 0.4050000011920929 0.004999999888241291 0.375 0.4050000011920929 0.004999999888241291 0.38499999046325684 0.4050000011920929 0.004999999888241291 0.39500001072883606 0.4050000011920929 0.004999999888241291 0.4050000011920929 0.4050000011920929 0.004999999888241291 0.41499999165534973 0.4050000011920929 0.004999999888241291 0.42500001192092896 0.4050000011920929 0.004999999888241291 0.4350000023841858 0.4050000011920929 0.004999999888241291 0.4449999928474426 0.4050000011920929 0.004999999888241291 0.45500001311302185 0.4050000011920929 0.004999999888241291 0.4650000035762787 0.4050000011920929 0.004999999888241291 0.4749999940395355 0.4050000011920929 0.004999999888241291 0.48500001430511475 0.4050000011920929 0.004999999888241291 0.4950000047683716 0.4050000011920929 0.004999999888241291 0.004999999888241291 0.41499999165534973 0.004999999888241291 0.014999999664723873 0.41499999165534973 0.004999999888241291 0.02500000037252903 0.41499999165534973 0.004999999888241291 0.03500000014901161 0.41499999165534973 0.004999999888241291 0.04500000178813934 0.41499999165534973 0.004999999888241291 0.054999999701976776 0.41499999165534973 0.004999999888241291 0.06499999761581421 0.41499999165534973 0.004999999888241291 0.07500000298023224 0.41499999165534973 0.004999999888241291 0.08500000089406967 0.41499999165534973 0.004999999888241291 0.0949999988079071 0.41499999165534973 0.004999999888241291 0.10499999672174454 0.41499999165534973 0.004999999888241291 0.11500000208616257 0.41499999165534973 0.004999999888241291 0.125 0.41499999165534973 0.004999999888241291 0.13500000536441803 0.41499999165534973 0.004999999888241291 0.14499999582767487 0.41499999165534973 0.004999999888241291 0.1550000011920929 0.41499999165534973 0.004999999888241291 0.16500000655651093 0.41499999165534973 0.004999999888241291 0.17499999701976776 0.41499999165534973 0.004999999888241291 0.1850000023841858 0.41499999165534973 0.004999999888241291 0.19499999284744263 0.41499999165534973 0.004999999888241291 0.20499999821186066 0.41499999165534973 0.004999999888241291 0.2150000035762787 0.41499999165534973 0.004999999888241291 0.22499999403953552 0.41499999165534973 0.004999999888241291 0.23499999940395355 0.41499999165534973 0.004999999888241291 0.24500000476837158 0.41499999165534973 0.004999999888241291 0.2549999952316284 0.41499999165534973 0.004999999888241291 0.26499998569488525 0.41499999165534973 0.004999999888241291 0.2750000059604645 0.41499999165534973 0.004999999888241291 0.2849999964237213 0.41499999165534973 0.004999999888241291 0.29499998688697815 0.41499999165534973 0.004999999888241291 0.3050000071525574 0.41499999165534973 0.004999999888241291 0.3149999976158142 0.41499999165534973 0.004999999888241291 0.32499998807907104 0.41499999165534973 0.004999999888241291 0.33500000834465027 0.41499999165534973 0.004999999888241291 0.3449999988079071 0.41499999165534973 0.004999999888241291 0.35499998927116394 0.41499999165534973 0.004999999888241291 0.36500000953674316 0.41499999165534973 0.004999999888241291 0.375 0.41499999165534973 0.004999999888241291 0.38499999046325684 0.41499999165534973 0.004999999888241291 0.39500001072883606 0.41499999165534973 0.004999999888241291 0.4050000011920929 0.41499999165534973 0.004999999888241291 0.41499999165534973 0.41499999165534973 0.004999999888241291 0.42500001192092896 0.41499999165534973 0.004999999888241291 0.4350000023841858 0.41499999165534973 0.004999999888241291 0.4449999928474426 0.41499999165534973 0.004999999888241291 0.45500001311302185 0.41499999165534973 0.004999999888241291 0.4650000035762787 0.41499999165534973 0.004999999888241291 0.4749999940395355 0.41499999165534973 0.004999999888241291 0.48500001430511475 0.41499999165534973 0.004999999888241291 0.4950000047683716 0.41499999165534973 0.004999999888241291 0.004999999888241291 0.42500001192092896 0.004999999888241291 0.014999999664723873 0.42500001192092896 0.004999999888241291 0.02500000037252903 0.42500001192092896 0.004999999888241291 0.03500000014901161 0.42500001192092896 0.004999999888241291 0.04500000178813934 0.42500001192092896 0.004999999888241291 0.054999999701976776 0.42500001192092896 0.004999999888241291 0.06499999761581421 0.42500001192092896 0.004999999888241291 0.07500000298023224 0.42500001192092896 0.004999999888241291 0.08500000089406967 0.42500001192092896 0.004999999888241291 0.0949999988079071 0.42500001192092896 0.004999999888241291 0.10499999672174454 0.42500001192092896 0.004999999888241291 0.11500000208616257 0.42500001192092896 0.004999999888241291 0.125 0.42500001192092896 0.004999999888241291 0.13500000536441803 0.42500001192092896 0.004999999888241291 0.14499999582767487 0.42500001192092896 0.004999999888241291 0.1550000011920929 0.42500001192092896 0.004999999888241291 0.16500000655651093 0.42500001192092896 0.004999999888241291 0.17499999701976776 0.42500001192092896 0.004999999888241291 0.1850000023841858 0.42500001192092896 0.004999999888241291 0.19499999284744263 0.42500001192092896 0.004999999888241291 0.20499999821186066 0.42500001192092896 0.004999999888241291 0.2150000035762787 0.42500001192092896 0.004999999888241291 0.22499999403953552 0.42500001192092896 0.004999999888241291 0.23499999940395355 0.42500001192092896 0.004999999888241291 0.24500000476837158 0.42500001192092896 0.004999999888241291 0.2549999952316284 0.42500001192092896 0.004999999888241291 0.26499998569488525 0.42500001192092896 0.004999999888241291 0.2750000059604645 0.42500001192092896 0.004999999888241291 0.2849999964237213 0.42500001192092896 0.004999999888241291 0.29499998688697815 0.42500001192092896 0.004999999888241291 0.3050000071525574 0.42500001192092896 0.004999999888241291 0.3149999976158142 0.42500001192092896 0.004999999888241291 0.32499998807907104 0.42500001192092896 0.004999999888241291 0.33500000834465027 0.42500001192092896 0.004999999888241291 0.3449999988079071 0.42500001192092896 0.004999999888241291 0.35499998927116394 0.42500001192092896 0.004999999888241291 0.36500000953674316 0.42500001192092896 0.004999999888241291 0.375 0.42500001192092896 0.004999999888241291 0.38499999046325684 0.42500001192092896 0.004999999888241291 0.39500001072883606 0.42500001192092896 0.004999999888241291 0.4050000011920929 0.42500001192092896 0.004999999888241291 0.41499999165534973 0.42500001192092896 0.004999999888241291 0.42500001192092896 0.42500001192092896 0.004999999888241291 0.4350000023841858 0.42500001192092896 0.004999999888241291 0.4449999928474426 0.42500001192092896 0.004999999888241291 0.45500001311302185 0.42500001192092896 0.004999999888241291 0.4650000035762787 0.42500001192092896 0.004999999888241291 0.4749999940395355 0.42500001192092896 0.004999999888241291 0.48500001430511475 0.42500001192092896 0.004999999888241291 0.4950000047683716 0.42500001192092896 0.004999999888241291 0.004999999888241291 0.4350000023841858 0.004999999888241291 0.014999999664723873 0.4350000023841858 0.004999999888241291 0.02500000037252903 0.4350000023841858 0.004999999888241291 0.03500000014901161 0.4350000023841858 0.004999999888241291 0.04500000178813934 0.4350000023841858 0.004999999888241291 0.054999999701976776 0.4350000023841858 0.004999999888241291 0.06499999761581421 0.4350000023841858 0.004999999888241291 0.07500000298023224 0.4350000023841858 0.004999999888241291 0.08500000089406967 0.4350000023841858 0.004999999888241291 0.0949999988079071 0.4350000023841858 0.004999999888241291 0.10499999672174454 0.4350000023841858 0.004999999888241291 0.11500000208616257 0.4350000023841858 0.004999999888241291 0.125 0.4350000023841858 0.004999999888241291 0.13500000536441803 0.4350000023841858 0.004999999888241291 0.14499999582767487 0.4350000023841858 0.004999999888241291 0.1550000011920929 0.43500000238
[...]
POINT_DATA 16200
FIELD FieldData 7
RADIUS 1 16200 double
0.00493 0.0049 0.00492 0.00493 0.00495 0.00495 0.00492 0.00498 0.00496 0.00497 0.0049 0.00497 0.00493 0.00496 0.00494 0.00492 0.00495 0.00493 0.00494 0.00494 0.00492 0.00491 0.00492 0.00498 0.00499 0.0049 0.00498 0.00491 0.00497 0.00492 0.00498 0.00499 0.00491 0.00494 0.00493 0.0049 0.00496 0.0049 0.00499 0.00499 0.00497 0.00499 0.00493 0.00494 0.00496 0.00497 0.00499 0.00496 0.00493 0.0049 0.0049 0.00492 0.00491 0.00491 0.00497 0.00497 0.00491 0.00497 0.00499 0.00497 0.00493 0.00494 0.00497 0.00491 0.00493 0.00497 0.00499 0.00491 0.00497 0.00498 0.0049 0.00497 0.00493 0.00496 0.00497 0.00492 0.0049 0.00496 0.00495 0.00499 0.0049 0.00491 0.00498 0.00492 0.00494 0.00494 0.00499 0.00499 0.00492 0.00494 0.00492 0.00497 0.00493 0.0049 0.00491 0.00497 0.00493 0.00491 0.00498 0.00499 0.00493 0.00494 0.00497 0.00499 0.00499 0.00495 0.00497 0.00493 0.0049 0.00496 0.00493 0.00499 0.0049 0.00494 0.00497 0.00496 0.00496 0.00496 0.0049 0.00497 0.00499 0.00499 0.00491 0.00497 0.00493 0.00493 0.00493 0.00494 0.00495 0.00495 0.00496 0.00499 0.00498 0.00492 0.00495 0.00499 0.00493 0.00499 0.00491 0.00494 0.00493 0.00497 0.00493 0.00499 0.0049 0.0049 0.00493 0.00493 0.00492 0.00498 0.00493 0.00495 0.00498 0.00497 0.00491 0.00497 0.00498 0.00491 0.00492 0.00494 0.00495 0.00492 0.00497 0.00497 0.00494 0.00496 0.00495 0.00497 0.00496 0.00495 0.00491 0.0049 0.00495 0.00499 0.00496 0.00494 0.00494 0.00492 0.00498 0.0049 0.00499 0.00496 0.00499 0.00491 0.00494 0.00492 0.0049 0.00491 0.00492 0.00492 0.00494 0.00499 0.00498 0.00498 0.00492 0.00491 0.00491 0.00494 0.00498 0.00499 0.00496 0.00496 0.00491 0.0049 0.00499 0.00491 0.00491 0.00497 0.00495 0.00491 0.0049 0.00494 0.00497 0.00499 0.00498 0.00499 0.00493 0.00494 0.0049 0.00494 0.0049 0.00499 0.00496 0.00493 0.00499 0.00499 0.00493 0.00499 0.00492 0.00499 0.00497 0.00493 0.00494 0.00497 0.00492 0.0049 0.00493 0.00497 0.00493 0.00491 0.00497 0.0049 0.00492 0.00495 0.0049 0.00498 0.00499 0.00498 0.00492 0.00491 0.00497 0.00497 0.00493 0.00499 0.00495 0.00492 0.00491 0.00494 0.0049 0.00491 0.0049 0.00497 0.00495 0.00499 0.00494 0.00497 0.00491 0.00495 0.00495 0.00497 0.00499 0.00491 0.00497 0.00491 0.00492 0.00498 0.00497 0.00496 0.00499 0.00496 0.00499 0.00491 0.00491 0.00496 0.00493 0.00496 0.00493 0.00493 0.00491 0.00499 0.00493 0.0049 0.00497 0.00499 0.00495 0.00491 0.00492 0.00499 0.00491 0.00497 0.00494 0.00496 0.00492 0.00494 0.00492 0.00491 0.00492 0.00492 0.00493 0.00495 0.00491 0.00492 0.00492 0.00497 0.00498 0.00495 0.0049 0.00493 0.00497 0.00495 0.00496 0.00496 0.00499 0.00491 0.00495 0.00493 0.00494 0.0049 0.0049 0.00494 0.00495 0.00495 0.00496 0.00499 0.00492 0.00497 0.00492 0.00494 0.00499 0.00492 0.0049 0.00493 0.0049 0.00492 0.00499 0.00497 0.00499 0.00498 0.00496 0.00493 0.00499 0.00499 0.00494 0.00494 0.00499 0.00498 0.00499 0.00493 0.00493 0.00497 0.00498 0.00492 0.00499 0.00498 0.00492 0.00494 0.00491 0.00493 0.00491 0.00492 0.00498 0.00499 0.00491 0.00495 0.00497 0.00495 0.00494 0.00499 0.00499 0.00494 0.00494 0.0049 0.00492 0.00491 0.00496 0.00491 0.00494 0.00495 0.00494 0.00494 0.00497 0.00498 0.00497 0.00496 0.00495 0.00494 0.00499 0.00496 0.00492 0.0049 0.00498 0.00495 0.00496 0.00498 0.00494 0.00495 0.00498 0.00496 0.00495 0.00494 0.00496 0.00492 0.00499 0.00497 0.00499 0.00493 0.00497 0.00496 0.00492 0.00496 0.00498 0.00497 0.00496 0.0049 0.00495 0.00493 0.00492 0.0049 0.00497 0.00497 0.00495 0.00491 0.00499 0.00496 0.00497 0.00494 0.00491 0.00492 0.00496 0.00494 0.00491 0.00496 0.00496 0.00499 0.00498 0.00493 0.00494 0.00499 0.00495 0.00495 0.00498 0.0049 0.00495 0.00499 0.0049 0.00494 0.00493 0.00496 0.00492 0.00494 0.00497 0.00493 0.00492 0.0049 0.00493 0.00495 0.00491 0.0049 0.00495 0.00498 0.00499 0.00491 0.00498 0.00497 0.00493 0.00495 0.00493 0.00497 0.00494 0.00498 0.00498 0.00497 0.00491 0.0049 0.00494 0.00499 0.00493 0.00494 0.0049 0.00492 0.00496 0.00493 0.00498 0.00496 0.00495 0.00498 0.0049 0.0049 0.00491 0.0049 0.00499 0.00492 0.00499 0.00496 0.00491 0.00491 0.00497 0.00494 0.0049 0.00491 0.00491 0.00499 0.00498 0.00495 0.00493 0.00498 0.00499 0.00493 0.00498 0.00495 0.00491 0.0049 0.00495 0.00491 0.00495 0.0049 0.00493 0.00493 0.0049 0.00496 0.00493 0.00497 0.00495 0.00495 0.00496 0.00495 0.00493 0.00492 0.00494 0.00494 0.00494 0.00492 0.00493 0.0049 0.00499 0.00497 0.00492 0.00498 0.00499 0.00495 0.00496 0.00491 0.00496 0.00495 0.00495 0.00498 0.00494 0.00495 0.00497 0.00491 0.00498 0.00496 0.00496 0.00497 0.00499 0.00494 0.00494 0.00497 0.00497 0.00498 0.00497 0.00499 0.00497 0.00495 0.00497 0.00497 0.00493 0.00491 0.00498 0.00492 0.00495 0.00499 0.00492 0.00493 0.00494 0.00494 0.0049 0.00493 0.00492 0.0049 0.00493 0.00496 0.00494 0.00491 0.00496 0.00493 0.00494 0.00494 0.00494 0.00491 0.00494 0.00494 0.00498 0.00499 0.00491 0.0049 0.00494 0.00497 0.00492 0.00492 0.00491 0.00499 0.00497 0.00493 0.00494 0.00497 0.00499 0.00498 0.00499 0.00493 0.00498 0.00492 0.00496 0.00497 0.00492 0.00496 0.00495 0.0049 0.00494 0.00492 0.00494 0.00496 0.00491 0.00497 0.00497 0.0049 0.00498 0.00497 0.00493 0.00497 0.00492 0.0049 0.00494 0.00493 0.00494 0.0049 0.00495 0.00494 0.00492 0.00496 0.00494 0.00499 0.00493 0.00497 0.00495 0.00498 0.00498 0.00491 0.00494 0.00498 0.00492 0.00495 0.0049 0.00494 0.00499 0.00491 0.00496 0.00491 0.00493 0.00493 0.00497 0.00493 0.00494 0.00491 0.00497 0.00493 0.00494 0.00498 0.0049 0.00492 0.0049 0.00492 0.00491 0.00492 0.00498 0.00495 0.00494 0.0049 0.00495 0.0049 0.00493 0.00495 0.00492 0.00492 0.00497 0.00496 0.00496 0.00492 0.00493 0.00496 0.00498 0.00495 0.00494 0.00496 0.00492 0.00491 0.00499 0.00498 0.00497 0.0049 0.00498 0.0049 0.00492 0.00493 0.00494 0.0049 0.00496 0.00496 0.00492 0.00495 0.00492 0.00493 0.00494 0.00496 0.00498 0.00496 0.00492 0.00497 0.00499 0.00494 0.00495 0.00491 0.0049 0.00491 0.00494 0.00491 0.00495 0.00499 0.00498 0.00498 0.00497 0.00495 0.00499 0.00497 0.00499 0.00496 0.00494 0.00498 0.00492 0.00494 0.00498 0.00492 0.00495 0.00496 0.00496 0.00491 0.0049 0.00493 0.00498 0.00494 0.00493 0.00496 0.00499 0.00493 0.00493 0.00493 0.00495 0.00498 0.00491 0.00495 0.00498 0.00495 0.00492 0.00496 0.00496 0.00498 0.00493 0.00496 0.00496 0.00498 0.00491 0.00498 0.00497 0.00492 0.00497 0.00499 0.00498 0.00495 0.00497 0.00495 0.00495 0.00499 0.00498 0.00494 0.00499 0.00495 0.00496 0.0049 0.00497 0.00491 0.00494 0.00491 0.00498 0.00495 0.00498 0.0049 0.00495 0.0049 0.00497 0.00499 0.00497 0.0049 0.00498 0.00496 0.00496 0.00492 0.00496 0.00499 0.0049 0.00491 0.0049 0.00493 0.00492 0.00496 0.00491 0.00494 0.00493 0.00497 0.00493 0.00498 0.00491 0.0049 0.00492 0.00491 0.00496 0.00491 0.00491 0.00494 0.00499 0.00491 0.00493 0.00495 0.00499 0.00493 0.00499 0.00496 0.00491 0.00494 0.00493 0.00496 0.00491 0.00494 0.0049 0.00494 0.00496 0.00495 0.00492 0.00493 0.00496 0.00498 0.00499 0.0049 0.00494 0.00492 0.00495 0.00496 0.00492 0.0049 0.00496 0.00496 0.00498 0.00496 0.00495 0.00491 0.00495 0.00497 0.00493 0.00496 0.00492 0.00496 0.00495 0.00494 0.00493 0.00492 0.00492 0.00494 0.00496 0.00499 0.00493 0.00492 0.00495 0.00497 0.00499 0.00492 0.00491 0.0049 0.0049 0.0049 0.00498 0.00492 0.00492 0.00495 0.00494 0.00498 0.00497 0.00496 0.00491 0.00493 0.0049 0.00495 0.00497 0.00497 0.00492 0.00496 0.00499 0.00492 0.00495 0.00492 0.00497 0.00496 0.00491 0.0049 0.00494 0.0049 0.0049 0.00492 0.00494 0.00494 0.00497 0.00493 0.00492 0.0049 0.00497 0.00498 0.00498 0.00499 0.00493 0.00491 0.00493 0.00494 0.00498 0.00497 0.00494 0.00494 0.00494 0.00493 0.00499 0.00495 0.00494 0.00492 0.00494 0.0049 0.00491 0.00497 0.00498 0.00499 0.00493 0.00498 0.00491 0.00494 0.00496 0.00494 0.00495 0.00495 0.00495 0.00491 0.00499 0.00493 0.00494 0.00498 0.00493 0.00495 0.00493 0.00496 0.00499 0.00491 0.00498 0.0049 0.00491 0.00491 0.00495 0.00491 0.00495 0.00491 0.00497 0.00495 0.00499 0.00491 0.00497 0.00498 0.00494 0.00497 0.00494 0.00495 0.0049 0.00494 0.00492 0.00492 0.00493 0.00499 0.00493 0.00491 0.00499 0.00492 0.00497 0.00498 0.00491 0.00495 0.00493 0.0049 0.00498 0.00494 0.00498 0.00493 0.00492 0.00497 0.00496 0.00496 0.00499 0.00495 0.00499 0.00493 0.00491 0.00496 0.00495 0.00494 0.00497 0.00493 0.00493 0.00494 0.00499 0.00492 0.00492 0.00493 0.00496 0.00499 0.00493 0.00497 0.00496 0.00498 0.00498 0.00499 0.0049 0.00491 0.00493 0.00497 0.00491 0.00495 0.00493 0.00491 0.00492 0.00492 0.00497 0.00498 0.00494 0.00498 0.00497 0.00492 0.00495 0.00499 0.00495 0.00497 0.00495 0.00491 0.00497 0.00498 0.00498 0.00491 0.00495 0.00499 0.00495 0.0049 0.00496 0.0049 0.00492 0.00498 0.0049 0.00498 0.0049 0.00495 0.00494 0.0049 0.00499 0.00497 0.00494 0.00493 0.00496 0.00494 0.00496 0.00492 0.00494 0.00494 0.00499 0.00495 0.00491 0.00492 0.0049 0.00491 0.0049 0.0049 0.00493 0.0049 0.00496 0.00499 0.00499 0.00491 0.00492 0.00497 0.00497 0.00498 0.00491 0.00493 0.00496 0.00499 0.00496 0.0049 0.00499 0.00498 0.00493 0.00498 0.00494 0.00494 0.00495 0.00494 0.0049 0.00492 0.00495 0.0049 0.0049 0.00496 0.0049 0.00493 0.00491 0.00495 0.00491 0.00496 0.00492 0.00494 0.00493 0.00498 0.00491 0.00497 0.00497 0.00496 0.00493 0.00491 0.00495 0.00492 0.00497 0.00499 0.00491 0.00491 0.00493 0.00491 0.00493 0.00493 0.00492 0.00498 0.00499 0.00493 0.00494 0.00499 0.00492 0.00497 0.00493 0.00491 0.00499 0.00492 0.00491 0.0049 0.00495 0.00497 0.00492 0.00494 0.00492 0.00497 0.00498 0.00492 0.00499 0.00491 0.0049 0.00491 0.0049 0.0049 0.00492 0.00499 0.00491 0.00492 0.0049 0.00496 0.0049 0.00498 0.0049 0.00497 0.00493 0.00498 0.00492 0.00494 0.00492 0.00497 0.0049 0.00499 0.00493 0.00499 0.00498 0.00493 0.00499 0.0049 0.00493 0.00494 0.00493 0.00496 0.00492 0.00495 0.00499 0.00492 0.00491 0.00494 0.00492 0.00491 0.00491 0.00496 0.00496 0.00491 0.00492 0.00493 0.00493 0.00497 0.00494 0.00499 0.00496 0.00495 0.00494 0.0049 0.00494 0.00492 0.0049 0.00493 0.00492 0.00496 0.00493 0.00493 0.0049 0.00499 0.00495 0.00497 0.00492 0.00499 0.00491 0.00492 0.00496 0.00491 0.00498 0.00491 0.00498 0.00494 0.00499 0.00492 0.00491 0.00493 0.00498 0.00496 0.00496 0.00498 0.00494 0.00498 0.00496 0.00495 0.00491 0.00491 0.00499 0.00492 0.0049 0.0049 0.00498 0.00492 0.00498 0.00498 0.00496 0.00493 0.00498 0.00495 0.00496 0.00495 0.00491 0.00496 0.00496 0.00494 0.00495 0.00492 0.00497 0.00498 0.00495 0.00491 0.00492 0.00492 0.00499 0.00493 0.00498 0.00491 0.00492 0.00494 0.00498 0.00499 0.00495 0.00492 0.00495 0.00497 0.00494 0.0049 0.00493 0.00497 0.00494 0.00499 0.00492 0.0049 0.00493 0.00497 0.0049 0.00491 0.00496 0.00495 0.00491 0.00491 0.00495 0.0049 0.00499 0.00498 0.00491 0.00494 0.00491 0.00499 0.00491 0.00496 0.00499 0.00496 0.00492 0.00492 0.00491 0.00496 0.00495 0.0049 0.00494 0.00492 0.0049 0.00497 0.00498 0.0049 0.00495 0.00495 0.00496 0.00499 0.0049 0.00496 0.0049 0.00495 0.00495 0.00494 0.00496 0.00492 0.00499 0.00493 0.00499 0.00491 0.00494 0.00491 0.00493 0.00498 0.00493 0.00496 0.00498 0.0049 0.00498 0.00491 0.00496 0.00494 0.00492 0.00495 0.0049 0.00492 0.0049 0.00499 0.00497 0.00491 0.00498 0.00496 0.00495 0.00494 0.00492 0.00492 0.0049 0.0049 0.00491 0.00497 0.00492 0.00497 0.00494 0.00497 0.00498 0.00499 0.00499 0.0049 0.00491 0.00499 0.00495 0.0049 0.00495 0.0049 0.00497 0.00491 0.00495 0.00491 0.00496 0.00492 0.00492 0.00494 0.00492 0.00497 0.00499 0.00495 0.00498 0.00491 0.00497 0.00495 0.00498 0.00492 0.00493 0.0049 0.0049 0.00491 0.00496 0.00495 0.00493 0.00497 0.00491 0.00493 0.00498 0.00497 0.00494 0.0049 0.00491 0.00493 0.00496 0.00494 0.00496 0.00492 0.00497 0.00493 0.0049 0.0049 0.00491 0.00498 0.00499 0.00495 0.00492 0.00494 0.00492 0.00496 0.00495 0.00496 0.00497 0.00495 0.00495 0.00493 0.00493 0.00493 0.00492 0.00499 0.00492 0.0049 0.00493 0.00494 0.00499 0.00499 0.00498 0.00496 0.00497 0.00493 0.00497 0.00495 0.00495 0.00493 0.00495 0.00494 0.00491 0.0049 0.00496 0.0049 0.00493 0.00499 0.00499 0.00497 0.0049 0.00496 0.00491 0.00493 0.00493 0.00497 0.00499 0.00491 0.00493 0.00494 0.00491 0.0049 0.00495 0.00492 0.0049 0.00495 0.0049 0.00495 0.00497 0.00496 0.0049 0.00494 0.00493 0.00499 0.00497 0.00496 0.00495 0.00494 0.00496 0.00498 0.00492 0.00497 0.0049 0.00499 0.00499 0.00494 0.00491 0.00494 0.00495 0.00491 0.00496 0.00494 0.00496 0.00495 0.00498 0.00491 0.00494 0.00496 0.00494 0.00496 0.00492 0.0049 0.00494 0.00497 0.00496 0.00491 0.00497 0.00493 0.00492 0.00497 0.00499 0.00491 0.00499 0.00494 0.00491 0.00493 0.00498 0.00492 0.00498 0.00499 0.00494 0.00494 0.00499 0.00497 0.00496 0.00492 0.00495 0.00498 0.00491 0.00496 0.0049 0.00499 0.00498 0.00496 0.00495 0.00497 0.00496 0.00496 0.00496 0.00497 0.00493 0.0049 0.00492 0.00497 0.00494 0.00492 0.00492 0.0049 0.00494 0.00498 0.00497 0.00495 0.00497 0.00498 0.00493 0.0049 0.00498 0.00497 0.00491 0.00492 0.00495 0.00497 0.00491 0.00495 0.00495 0.00498 0.0049 0.00492 0.00494 0.0049 0.00497 0.00498 0.00499 0.0049 0.00494 0.00499 0.00497 0.00493 0.00493 0.00496 0.00497 0.00498 0.00496 0.00497 0.00495 0.00491 0.00497 0.00494 0.00499 0.00498 0.00497 0.00491 0.0049 0.00491 0.0049 0.0049 0.00497 0.00499 0.00496 0.0049 0.00493 0.00492 0.00491 0.00499 0.00492 0.00499 0.00491 0.0049 0.00491 0.00492 0.0049 0.00499 0.00491 0.00493 0.00496 0.00493 0.00499 0.00496 0.0049 0.00498 0.00499 0.00491 0.00491 0.00495 0.00497 0.00495 0.00493 0.00494 0.00495 0.00491 0.00492 0.00491 0.00498 0.00491 0.00498 0.0049 0.00493 0.00495 0.00495 0.00497 0.00493 0.00498 0.00491 0.00492 0.00498 0.00495 0.0049 0.00499 0.00494 0.0049 0.00492 0.00498 0.00497 0.00499 0.00494 0.0049 0.00496 0.0049 0.0049 0.00491 0.00492 0.0049 0.00498 0.00497 0.00499 0.00495 0.00499 0.00495 0.00492 0.00493 0.00499 0.00494 0.00499 0.00492 0.00493 0.00498 0.00497 0.00498 0.00493 0.00499 0.00491 0.00495 0.00491 0.00498 0.00494 0.00491 0.00493 0.00497 0.00495 0.00495 0.00491 0.0049 0.00497 0.00491 0.0049 0.00498 0.00497 0.00498 0.00496 0.00491 0.00492 0.00493 0.00494 0.00494 0.00497 0.00495 0.00494 0.00498 0.00495 0.00495 0.0049 0.00495 0.00494 0.00498 0.00496 0.0049 0.00499 0.00492 0.00495 0.00495 0.00496 0.00494 0.00496 0.00492 0.00494 0.00494 0.00494 0.00498 0.00495 0.00492 0.00491 0.00495 0.00493 0.00493 0.00499 0.00492 0.00496 0.00494 0.0049 0.0049 0.00494 0.00498 0.00497 0.00492 0.00498 0.00498 0.00493 0.00491 0.00498 0.00491 0.00496 0.00492 0.00496 0.00491 0.00499 0.00498 0.00499 0.00496 0.00491 0.00496 0.0049 0.00496 0.00493 0.00493 0.00494 0.00493 0.00498 0.00495 0.00492 0.00496 0.00499 0.0049 0.00496 0.0049 0.00491 0.00492 0.00497 0.00494 0.00492 0.00492 0.00498 0.0049 0.0049 0.00498 0.00496 0.00494 0.0049 0.00496 0.00493 0.0049 0.00499 0.00499 0.00495 0.00495 0.00495 0.00494 0.00498 0.00499 0.00497 0.00493 0.0049 0.00497 0.00493 0.00497 0.00497 0.00495 0.00499 0.00495 0.00498 0.00495 0.00497 0.00492 0.00499 0.0049 0.00497 0.00493 0.00496 0.00496 0.0049 0.00497 0.00494 0.00496 0.00491 0.00496 0.00497 0.00496 0.00499 0.00495 0.00495 0.00491 0.00492 0.0049 0.00494 0.00495 0.00492 0.0049 0.00496 0.00492 0.00491 0.00492 0.00497 0.00497 0.00498 0.0049 0.00498 0.0049 0.00492 0.00497 0.00492 0.00493 0.00491 0.00494 0.00492 0.00498 0.00497 0.0049 0.00499 0.0049 0.00494 0.00499 0.00492 0.00497 0.00495 0.00492 0.0049 0.0049 0.00492 0.00494 0.00498 0.00499 0.00499 0.00495 0.00497 0.00496 0.00497 0.00494 0.0049 0.0049 0.0049 0.0049 0.00491 0.00495 0.00495 0.00498 0.00495 0.00496 0.00494 0.00497 0.00496 0.00498 0.00495 0.0049 0.00496 0.00496 0.00495 0.00496 0.00495 0.00499 0.00493 0.00493 0.00496 0.00495 0.00491 0.0049 0.00498 0.00491 0.00498 0.00493 0.00493 0.00494 0.0049 0.00496 0.00492 0.00496 0.00496 0.00494 0.00497 0.0049 0.00499 0.00491 0.00498 0.00499 0.00491 0.00493 0.00493 0.00497 0.00494 0.00491 0.00497 0.00497 0.00495 0.00496 0.0049 0.00496 0.00495 0.00497 0.00491 0.0049 0.00497 0.00499 0.00492 0.00496 0.00492 0.00492 0.00496 0.00495 0.00493 0.00491 0.00499 0.00499 0.00492 0.00497 0.00496 0.00494 0.00494 0.00491 0.00493 0.00497 0.00493 0.00493 0.00491 0.00491 0.00494 0.00498 0.0049 0.00499 0.00494 0.00494 0.00498 0.00497 0.00492 0.00496 0.00498 0.00492 0.00492 0.00492 0.00497 0.00494 0.00497 0.00494 0.00491 0.00497 0.00498 0.00493 0.00499 0.00492 0.00492 0.0049 0.0049 0.00493 0.00492 0.00492 0.00499 0.00496 0.00494 0.00492 0.00497 0.00498 0.00495 0.00495 0.0049 0.00496 0.00494 0.00496 0.00496 0.00496 0.00494 0.00498 0.00494 0.00498 0.00491 0.00498 0.00493 0.00496 0.00497 0.00492 0.00499 0.00498 0.0049 0.00495 0.00499 0.00498 0.00493 0.00491 0.00499 0.00498 0.00491 0.0049 0.0049 0.00499 0.0049 0.00493 0.00492 0.00491 0.00497 0.00495 0.0049 0.00491 0.00492 0.00495 0.00491 0.00496 0.0049 0.00498 0.0049 0.00493 0.00493 0.00494 0.00495 0.00496 0.00498 0.00493 0.00497 0.0049 0.00491 0.00492 0.00499 0.0049 0.00493 0.0049 0.00497 0.00494 0.00493 0.00497 0.00496 0.00497 0.00498 0.00491 0.00497 0.00496 0.0049 0.00497 0.00499 0.00494 0.0049 0.00496 0.00492 0.00494 0.00497 0.00491 0.00495 0.00492 0.00497 0.00491 0.00496 0.00495 0.00496 0.00499 0.00496 0.00495 0.00495 0.0049 0.00492 0.00496 0.00499 0.00496 0.00492 0.00494 0.00499 0.00491 0.00497 0.00497 0.00497 0.00494 0.00493 0.00494 0.00497 0.00499 0.00492 0.00497 0.0049 0.00499 0.00492 0.00495 0.00493 0.00498 0.00491 0.00494 0.00495 0.00494 0.00493 0.0049 0.00491 0.00498 0.00499 0.00499 0.00499 0.00496 0.0049 0.00491 0.00496 0.0049 0.00497 0.00492 0.00492 0.0049 0.00498 0.00491 0.0049 0.0049 0.00494 0.00492 0.00492 0.00495 0.0049 0.00492 0.0049 0.00498 0.00494 0.00498 0.00491 0.00494 0.00494 0.00495 0.00492 0.00497 0.00493 0.00493 0.00496 0.00494 0.00491 0.00494 0.00497 0.00497 0.00496 0.0049 0.0049 0.0049 0.00492 0.00493 0.00493 0.00494 0.00498 0.00492 0.00493 0.0049 0.00499 0.00496 0.00495 0.00498 0.00499 0.00495 0.00495 0.00493 0.00495 0.00497 0.00493 0.0049 0.00494 0.00491 0.00499 0.00496 0.00496 0.00493 0.00492 0.00499 0.00494 0.00498 0.00496 0.00491 0.00491 0.00493 0.00491 0.00497 0.00491 0.0049 0.00491 0.00495 0.0049 0.00496 0.0049 0.00497 0.0049 0.00495 0.00495 0.00497 0.00494 0.00493 0.00499 0.00496 0.00493 0.00495 0.00491 0.00493 0.00499 0.0049 0.00494 0.00499 0.0049 0.00499 0.00499 0.00491 0.00498 0.00496 0.00496 0.00492 0.00497 0.0049 0.0049 0.0049 0.0049 0.00497 0.00496 0.00493 0.00491 0.00498 0.0049 0.00493 0.00491 0.00491 0.00495 0.00494 0.0049 0.0049 0.00493 0.00491 0.00495 0.00497 0.00493 0.00492 0.00491 0.00495 0.00492 0.00499 0.00493 0.00493 0.00493 0.00499 0.00491 0.00494 0.00493 0.00491 0.00498 0.00496 0.00492 0.00492 0.00495 0.00497 0.0049 0.00494 0.00491 0.00499 0.00495 0.00494 0.00496 0.00496 0.00496 0.00495 0.00498 0.00499 0.00497 0.00493 0.00493 0.00497 0.0049 0.00496 0.00496 0.00494 0.00499 0.00496 0.00497 0.0049 0.00493 0.00495 0.00496 0.00499 0.00496 0.0049 0.00498 0.00496 0.00496 0.00498 0.00495 0.00494 0.00499 0.00496 0.0049 0.00492 0.00498 0.0049 0.00498 0.00491 0.00492 0.00491 0.00491 0.00493 0.0049 0.00496 0.00497 0.00492 0.00491 0.00494 0.00492 0.00492 0.0049 0.00491 0.00494 0.00493 0.00491 0.00492 0.00499 0.00497 0.00491 0.00494 0.00497 0.00491 0.00494 0.00497 0.00493 0.00498 0.00495 0.00498 0.00493 0.00492 0.00493 0.00491 0.00499 0.00496 0.0049 0.00498 0.00499 0.00493 0.00493 0.00498 0.00496 0.00499 0.00499 0.0049 0.00498 0.0049 0.00496 0.00499 0.00493 0.00497 0.00492 0.00499 0.00497 0.00491 0.00496 0.00499 0.00494 0.00494 0.00496 0.00497 0.00495 0.00491 0.0049 0.00497 0.00491 0.00496 0.00493 0.00492 0.00499 0.00498 0.00496 0.00494 0.00495 0.0049 0.00492 0.00491 0.00495 0.00494 0.00494 0.00497 0.00492 0.00496 0.00496 0.00499 0.00499 0.00495 0.0049 0.00494 0.00492 0.00495 0.00495 0.00496 0.00499 0.00496 0.0049 0.00492 0.00496 0.00496 0.00499 0.00494 0.00495 0.00498 0.00494 0.00493 0.00496 0.00494 0.00496 0.00498 0.00495 0.00499 0.00497 0.00494 0.00499 0.00491 0.00496 0.00493 0.00492 0.00494 0.00496 0.00497 0.00497 0.00496 0.00494 0.00491 0.00496 0.00493 0.00496 0.0049 0.0049 0.00491 0.00497 0.0049 0.00493 0.00497 0.00497 0.00496 0.00491 0.00495 0.00492 0.00499 0.00491 0.0049 0.00496 0.00499 0.00499 0.0049 0.0049 0.0049 0.00492 0.00492 0.00496 0.00491 0.00498 0.00495 0.00491 0.0049 0.00499 0.0049 0.00494 0.00497 0.00491 0.